LAMMPS data file. CGCMM style. atom_style atomic generated by VMD/TopoTools v1.8 on Sun Apr 06 09:25:56 IST 2025
 700 atoms
 0 bonds
 0 angles
 0 dihedrals
 0 impropers
 1 atom types
 0 bond types
 0 angle types
 0 dihedral types
 0 improper types
 -50.000000 50.000000  xlo xhi
 -50.000000 50.000000  ylo yhi
 -0.267976 56.007155  zlo zhi

# Pair Coeffs
#
# 1  CA

 Masses

 1 12.010700 # CA

 Atoms # atomic

1 1 5.162323 0.464617 8.843235 # CA
2 1 4.852682 1.821242 9.111212 # CA
3 1 4.669892 2.248901 10.451096 # CA
4 1 3.903312 3.410221 10.719072 # CA
5 1 5.099893 0.925494 6.431444 # CA
6 1 4.669892 2.248901 6.699420 # CA
7 1 4.449502 2.658454 8.039305 # CA
8 1 3.581908 3.746382 8.307281 # CA
9 1 3.231665 4.052381 9.647165 # CA
10 1 2.037123 4.766086 9.915142 # CA
11 1 4.996402 1.378919 4.019652 # CA
12 1 4.449502 2.658454 4.287629 # CA
13 1 4.193288 3.046602 5.627513 # CA
14 1 3.231665 4.052381 5.895490 # CA
15 1 2.855403 4.325751 7.235374 # CA
16 1 1.601694 4.929506 7.503351 # CA
17 1 1.153368 5.053236 8.843235 # CA
18 1 -0.232543 5.177970 9.111212 # CA
19 1 -0.695756 5.136280 10.451096 # CA
20 1 -2.037123 4.766086 10.719072 # CA
21 1 5.183189 0.000000 0.000000 # CA
22 1 4.996402 1.378919 0.267977 # CA
23 1 4.852682 1.821242 1.607861 # CA
24 1 4.193288 3.046602 1.875838 # CA
25 1 3.903312 3.410221 3.215722 # CA
26 1 2.855403 4.325751 3.483699 # CA
27 1 2.456151 4.564293 4.823583 # CA
28 1 1.153368 5.053236 5.091559 # CA
29 1 0.695756 5.136280 6.431444 # CA
30 1 -0.695756 5.136280 6.699420 # CA
31 1 -1.153368 5.053236 8.039305 # CA
32 1 -2.456151 4.564293 8.307281 # CA
33 1 -2.855403 4.325751 9.647165 # CA
34 1 -3.903312 3.410221 9.915142 # CA
35 1 3.581908 3.746382 0.803930 # CA
36 1 2.456151 4.564293 1.071907 # CA
37 1 2.037123 4.766086 2.411791 # CA
38 1 0.695756 5.136280 2.679768 # CA
39 1 0.232543 5.177970 4.019652 # CA
40 1 -1.153368 5.053236 4.287629 # CA
41 1 -1.601694 4.929506 5.627513 # CA
42 1 -2.855403 4.325751 5.895490 # CA
43 1 -3.231665 4.052381 7.235374 # CA
44 1 -4.193288 3.046602 7.503351 # CA
45 1 -4.449502 2.658454 8.843235 # CA
46 1 -4.996402 1.378919 9.111212 # CA
47 1 -5.099893 0.925494 10.451096 # CA
48 1 -5.162323 -0.464617 10.719072 # CA
49 1 1.601694 4.929506 0.000000 # CA
50 1 0.232543 5.177970 0.267977 # CA
51 1 -0.232543 5.177970 1.607861 # CA
52 1 -1.601694 4.929506 1.875838 # CA
53 1 -2.037123 4.766086 3.215722 # CA
54 1 -3.231665 4.052381 3.483699 # CA
55 1 -3.581908 3.746382 4.823583 # CA
56 1 -4.449502 2.658454 5.091559 # CA
57 1 -4.669892 2.248901 6.431444 # CA
58 1 -5.099893 0.925494 6.699420 # CA
59 1 -5.162323 0.464617 8.039305 # CA
60 1 -5.099893 -0.925494 8.307281 # CA
61 1 -4.996402 -1.378919 9.647165 # CA
62 1 -4.449502 -2.658454 9.915142 # CA
63 1 -2.456151 4.564293 0.803930 # CA
64 1 -3.581908 3.746382 1.071907 # CA
65 1 -3.903312 3.410221 2.411791 # CA
66 1 -4.669892 2.248901 2.679768 # CA
67 1 -4.852682 1.821242 4.019652 # CA
68 1 -5.162323 0.464617 4.287629 # CA
69 1 -5.183189 0.000000 5.627513 # CA
70 1 -4.996402 -1.378919 5.895490 # CA
71 1 -4.852682 -1.821242 7.235374 # CA
72 1 -4.193288 -3.046602 7.503351 # CA
73 1 -3.903312 -3.410221 8.843235 # CA
74 1 -2.855403 -4.325751 9.111212 # CA
75 1 -2.456151 -4.564293 10.451096 # CA
76 1 -1.153368 -5.053236 10.719072 # CA
77 1 -4.193288 3.046602 0.000000 # CA
78 1 -4.852682 1.821242 0.267977 # CA
79 1 -4.996402 1.378919 1.607861 # CA
80 1 -5.183189 0.000000 1.875838 # CA
81 1 -5.162323 -0.464617 3.215722 # CA
82 1 -4.852682 -1.821242 3.483699 # CA
83 1 -4.669892 -2.248901 4.823583 # CA
84 1 -3.903312 -3.410221 5.091559 # CA
85 1 -3.581908 -3.746382 6.431444 # CA
86 1 -2.456151 -4.564293 6.699420 # CA
87 1 -2.037123 -4.766086 8.039305 # CA
88 1 -0.695756 -5.136280 8.307281 # CA
89 1 -0.232543 -5.177970 9.647165 # CA
90 1 1.153368 -5.053236 9.915142 # CA
91 1 -5.099893 -0.925494 0.803930 # CA
92 1 -4.669892 -2.248901 1.071907 # CA
93 1 -4.449502 -2.658454 2.411791 # CA
94 1 -3.581908 -3.746382 2.679768 # CA
95 1 -3.231665 -4.052381 4.019652 # CA
96 1 -2.037123 -4.766086 4.287629 # CA
97 1 -1.601694 -4.929506 5.627513 # CA
98 1 -0.232543 -5.177970 5.895490 # CA
99 1 0.232543 -5.177970 7.235374 # CA
100 1 1.601694 -4.929506 7.503351 # CA
101 1 2.037123 -4.766086 8.843235 # CA
102 1 3.231665 -4.052381 9.111212 # CA
103 1 3.581908 -3.746382 10.451096 # CA
104 1 4.449502 -2.658454 10.719072 # CA
105 1 -4.193288 -3.046602 0.000000 # CA
106 1 -3.231665 -4.052381 0.267977 # CA
107 1 -2.855403 -4.325751 1.607861 # CA
108 1 -1.601694 -4.929506 1.875838 # CA
109 1 -1.153368 -5.053236 3.215722 # CA
110 1 0.232543 -5.177970 3.483699 # CA
111 1 0.695756 -5.136280 4.823583 # CA
112 1 2.037123 -4.766086 5.091559 # CA
113 1 2.456151 -4.564293 6.431444 # CA
114 1 3.581908 -3.746382 6.699420 # CA
115 1 3.903312 -3.410221 8.039305 # CA
116 1 4.669892 -2.248901 8.307281 # CA
117 1 4.852682 -1.821242 9.647165 # CA
118 1 5.162323 -0.464617 9.915142 # CA
119 1 -0.695756 -5.136280 0.803930 # CA
120 1 0.695756 -5.136280 1.071907 # CA
121 1 1.153368 -5.053236 2.411791 # CA
122 1 2.456151 -4.564293 2.679768 # CA
123 1 2.855403 -4.325751 4.019652 # CA
124 1 3.903312 -3.410221 4.287629 # CA
125 1 4.193288 -3.046602 5.627513 # CA
126 1 4.852682 -1.821242 5.895490 # CA
127 1 4.996402 -1.378919 7.235374 # CA
128 1 5.183189 -0.000000 7.503351 # CA
129 1 1.601694 -4.929506 0.000000 # CA
130 1 2.855403 -4.325751 0.267977 # CA
131 1 3.231665 -4.052381 1.607861 # CA
132 1 4.193288 -3.046602 1.875838 # CA
133 1 4.449502 -2.658454 3.215722 # CA
134 1 4.996402 -1.378919 3.483699 # CA
135 1 5.099893 -0.925494 4.823583 # CA
136 1 5.162323 0.464617 5.091559 # CA
137 1 4.669892 -2.248901 0.803930 # CA
138 1 5.099893 -0.925494 1.071907 # CA
139 1 5.162323 -0.464617 2.411791 # CA
140 1 5.099893 0.925494 2.679768 # CA
141 1 5.162323 0.464617 20.098261 # CA
142 1 4.852682 1.821242 20.366238 # CA
143 1 4.669892 2.248901 21.706121 # CA
144 1 3.903312 3.410221 21.974098 # CA
145 1 5.099893 0.925494 17.686470 # CA
146 1 4.669892 2.248901 17.954447 # CA
147 1 4.449502 2.658454 19.294331 # CA
148 1 3.581908 3.746382 19.562307 # CA
149 1 3.231665 4.052381 20.902191 # CA
150 1 2.037123 4.766086 21.170168 # CA
151 1 4.996402 1.378919 15.274678 # CA
152 1 4.449502 2.658454 15.542655 # CA
153 1 4.193288 3.046602 16.882540 # CA
154 1 3.231665 4.052381 17.150517 # CA
155 1 2.855403 4.325751 18.490400 # CA
156 1 1.601694 4.929506 18.758377 # CA
157 1 1.153368 5.053236 20.098261 # CA
158 1 -0.232543 5.177970 20.366238 # CA
159 1 -0.695756 5.136280 21.706121 # CA
160 1 -2.037123 4.766086 21.974098 # CA
161 1 5.183189 0.000000 11.255026 # CA
162 1 4.996402 1.378919 11.523003 # CA
163 1 4.852682 1.821242 12.862887 # CA
164 1 4.193288 3.046602 13.130864 # CA
165 1 3.903312 3.410221 14.470748 # CA
166 1 2.855403 4.325751 14.738725 # CA
167 1 2.456151 4.564293 16.078609 # CA
168 1 1.153368 5.053236 16.346586 # CA
169 1 0.695756 5.136280 17.686470 # CA
170 1 -0.695756 5.136280 17.954447 # CA
171 1 -1.153368 5.053236 19.294331 # CA
172 1 -2.456151 4.564293 19.562307 # CA
173 1 -2.855403 4.325751 20.902191 # CA
174 1 -3.903312 3.410221 21.170168 # CA
175 1 3.581908 3.746382 12.058956 # CA
176 1 2.456151 4.564293 12.326933 # CA
177 1 2.037123 4.766086 13.666818 # CA
178 1 0.695756 5.136280 13.934794 # CA
179 1 0.232543 5.177970 15.274678 # CA
180 1 -1.153368 5.053236 15.542655 # CA
181 1 -1.601694 4.929506 16.882540 # CA
182 1 -2.855403 4.325751 17.150517 # CA
183 1 -3.231665 4.052381 18.490400 # CA
184 1 -4.193288 3.046602 18.758377 # CA
185 1 -4.449502 2.658454 20.098261 # CA
186 1 -4.996402 1.378919 20.366238 # CA
187 1 -5.099893 0.925494 21.706121 # CA
188 1 -5.162323 -0.464617 21.974098 # CA
189 1 1.601694 4.929506 11.255026 # CA
190 1 0.232543 5.177970 11.523003 # CA
191 1 -0.232543 5.177970 12.862887 # CA
192 1 -1.601694 4.929506 13.130864 # CA
193 1 -2.037123 4.766086 14.470748 # CA
194 1 -3.231665 4.052381 14.738725 # CA
195 1 -3.581908 3.746382 16.078609 # CA
196 1 -4.449502 2.658454 16.346586 # CA
197 1 -4.669892 2.248901 17.686470 # CA
198 1 -5.099893 0.925494 17.954447 # CA
199 1 -5.162323 0.464617 19.294331 # CA
200 1 -5.099893 -0.925494 19.562307 # CA
201 1 -4.996402 -1.378919 20.902191 # CA
202 1 -4.449502 -2.658454 21.170168 # CA
203 1 -2.456151 4.564293 12.058956 # CA
204 1 -3.581908 3.746382 12.326933 # CA
205 1 -3.903312 3.410221 13.666818 # CA
206 1 -4.669892 2.248901 13.934794 # CA
207 1 -4.852682 1.821242 15.274678 # CA
208 1 -5.162323 0.464617 15.542655 # CA
209 1 -5.183189 0.000000 16.882540 # CA
210 1 -4.996402 -1.378919 17.150517 # CA
211 1 -4.852682 -1.821242 18.490400 # CA
212 1 -4.193288 -3.046602 18.758377 # CA
213 1 -3.903312 -3.410221 20.098261 # CA
214 1 -2.855403 -4.325751 20.366238 # CA
215 1 -2.456151 -4.564293 21.706121 # CA
216 1 -1.153368 -5.053236 21.974098 # CA
217 1 -4.193288 3.046602 11.255026 # CA
218 1 -4.852682 1.821242 11.523003 # CA
219 1 -4.996402 1.378919 12.862887 # CA
220 1 -5.183189 0.000000 13.130864 # CA
221 1 -5.162323 -0.464617 14.470748 # CA
222 1 -4.852682 -1.821242 14.738725 # CA
223 1 -4.669892 -2.248901 16.078609 # CA
224 1 -3.903312 -3.410221 16.346586 # CA
225 1 -3.581908 -3.746382 17.686470 # CA
226 1 -2.456151 -4.564293 17.954447 # CA
227 1 -2.037123 -4.766086 19.294331 # CA
228 1 -0.695756 -5.136280 19.562307 # CA
229 1 -0.232543 -5.177970 20.902191 # CA
230 1 1.153368 -5.053236 21.170168 # CA
231 1 -5.099893 -0.925494 12.058956 # CA
232 1 -4.669892 -2.248901 12.326933 # CA
233 1 -4.449502 -2.658454 13.666818 # CA
234 1 -3.581908 -3.746382 13.934794 # CA
235 1 -3.231665 -4.052381 15.274678 # CA
236 1 -2.037123 -4.766086 15.542655 # CA
237 1 -1.601694 -4.929506 16.882540 # CA
238 1 -0.232543 -5.177970 17.150517 # CA
239 1 0.232543 -5.177970 18.490400 # CA
240 1 1.601694 -4.929506 18.758377 # CA
241 1 2.037123 -4.766086 20.098261 # CA
242 1 3.231665 -4.052381 20.366238 # CA
243 1 3.581908 -3.746382 21.706121 # CA
244 1 4.449502 -2.658454 21.974098 # CA
245 1 -4.193288 -3.046602 11.255026 # CA
246 1 -3.231665 -4.052381 11.523003 # CA
247 1 -2.855403 -4.325751 12.862887 # CA
248 1 -1.601694 -4.929506 13.130864 # CA
249 1 -1.153368 -5.053236 14.470748 # CA
250 1 0.232543 -5.177970 14.738725 # CA
251 1 0.695756 -5.136280 16.078609 # CA
252 1 2.037123 -4.766086 16.346586 # CA
253 1 2.456151 -4.564293 17.686470 # CA
254 1 3.581908 -3.746382 17.954447 # CA
255 1 3.903312 -3.410221 19.294331 # CA
256 1 4.669892 -2.248901 19.562307 # CA
257 1 4.852682 -1.821242 20.902191 # CA
258 1 5.162323 -0.464617 21.170168 # CA
259 1 -0.695756 -5.136280 12.058956 # CA
260 1 0.695756 -5.136280 12.326933 # CA
261 1 1.153368 -5.053236 13.666818 # CA
262 1 2.456151 -4.564293 13.934794 # CA
263 1 2.855403 -4.325751 15.274678 # CA
264 1 3.903312 -3.410221 15.542655 # CA
265 1 4.193288 -3.046602 16.882540 # CA
266 1 4.852682 -1.821242 17.150517 # CA
267 1 4.996402 -1.378919 18.490400 # CA
268 1 5.183189 -0.000000 18.758377 # CA
269 1 1.601694 -4.929506 11.255026 # CA
270 1 2.855403 -4.325751 11.523003 # CA
271 1 3.231665 -4.052381 12.862887 # CA
272 1 4.193288 -3.046602 13.130864 # CA
273 1 4.449502 -2.658454 14.470748 # CA
274 1 4.996402 -1.378919 14.738725 # CA
275 1 5.099893 -0.925494 16.078609 # CA
276 1 5.162323 0.464617 16.346586 # CA
277 1 4.669892 -2.248901 12.058956 # CA
278 1 5.099893 -0.925494 12.326933 # CA
279 1 5.162323 -0.464617 13.666818 # CA
280 1 5.099893 0.925494 13.934794 # CA
281 1 5.162323 0.464617 31.353287 # CA
282 1 4.852682 1.821242 31.621264 # CA
283 1 4.669892 2.248901 32.961147 # CA
284 1 3.903312 3.410221 33.229126 # CA
285 1 5.099893 0.925494 28.941496 # CA
286 1 4.669892 2.248901 29.209473 # CA
287 1 4.449502 2.658454 30.549356 # CA
288 1 3.581908 3.746382 30.817333 # CA
289 1 3.231665 4.052381 32.157219 # CA
290 1 2.037123 4.766086 32.425194 # CA
291 1 4.996402 1.378919 26.529705 # CA
292 1 4.449502 2.658454 26.797682 # CA
293 1 4.193288 3.046602 28.137566 # CA
294 1 3.231665 4.052381 28.405542 # CA
295 1 2.855403 4.325751 29.745426 # CA
296 1 1.601694 4.929506 30.013403 # CA
297 1 1.153368 5.053236 31.353287 # CA
298 1 -0.232543 5.177970 31.621264 # CA
299 1 -0.695756 5.136280 32.961147 # CA
300 1 -2.037123 4.766086 33.229126 # CA
301 1 5.183189 0.000000 22.510052 # CA
302 1 4.996402 1.378919 22.778028 # CA
303 1 4.852682 1.821242 24.117912 # CA
304 1 4.193288 3.046602 24.385889 # CA
305 1 3.903312 3.410221 25.725775 # CA
306 1 2.855403 4.325751 25.993752 # CA
307 1 2.456151 4.564293 27.333635 # CA
308 1 1.153368 5.053236 27.601612 # CA
309 1 0.695756 5.136280 28.941496 # CA
310 1 -0.695756 5.136280 29.209473 # CA
311 1 -1.153368 5.053236 30.549356 # CA
312 1 -2.456151 4.564293 30.817333 # CA
313 1 -2.855403 4.325751 32.157219 # CA
314 1 -3.903312 3.410221 32.425194 # CA
315 1 3.581908 3.746382 23.313982 # CA
316 1 2.456151 4.564293 23.581959 # CA
317 1 2.037123 4.766086 24.921843 # CA
318 1 0.695756 5.136280 25.189819 # CA
319 1 0.232543 5.177970 26.529705 # CA
320 1 -1.153368 5.053236 26.797682 # CA
321 1 -1.601694 4.929506 28.137566 # CA
322 1 -2.855403 4.325751 28.405542 # CA
323 1 -3.231665 4.052381 29.745426 # CA
324 1 -4.193288 3.046602 30.013403 # CA
325 1 -4.449502 2.658454 31.353287 # CA
326 1 -4.996402 1.378919 31.621264 # CA
327 1 -5.099893 0.925494 32.961147 # CA
328 1 -5.162323 -0.464617 33.229126 # CA
329 1 1.601694 4.929506 22.510052 # CA
330 1 0.232543 5.177970 22.778028 # CA
331 1 -0.232543 5.177970 24.117912 # CA
332 1 -1.601694 4.929506 24.385889 # CA
333 1 -2.037123 4.766086 25.725775 # CA
334 1 -3.231665 4.052381 25.993752 # CA
335 1 -3.581908 3.746382 27.333635 # CA
336 1 -4.449502 2.658454 27.601612 # CA
337 1 -4.669892 2.248901 28.941496 # CA
338 1 -5.099893 0.925494 29.209473 # CA
339 1 -5.162323 0.464617 30.549356 # CA
340 1 -5.099893 -0.925494 30.817333 # CA
341 1 -4.996402 -1.378919 32.157219 # CA
342 1 -4.449502 -2.658454 32.425194 # CA
343 1 -2.456151 4.564293 23.313982 # CA
344 1 -3.581908 3.746382 23.581959 # CA
345 1 -3.903312 3.410221 24.921843 # CA
346 1 -4.669892 2.248901 25.189819 # CA
347 1 -4.852682 1.821242 26.529705 # CA
348 1 -5.162323 0.464617 26.797682 # CA
349 1 -5.183189 0.000000 28.137566 # CA
350 1 -4.996402 -1.378919 28.405542 # CA
351 1 -4.852682 -1.821242 29.745426 # CA
352 1 -4.193288 -3.046602 30.013403 # CA
353 1 -3.903312 -3.410221 31.353287 # CA
354 1 -2.855403 -4.325751 31.621264 # CA
355 1 -2.456151 -4.564293 32.961147 # CA
356 1 -1.153368 -5.053236 33.229126 # CA
357 1 -4.193288 3.046602 22.510052 # CA
358 1 -4.852682 1.821242 22.778028 # CA
359 1 -4.996402 1.378919 24.117912 # CA
360 1 -5.183189 0.000000 24.385889 # CA
361 1 -5.162323 -0.464617 25.725775 # CA
362 1 -4.852682 -1.821242 25.993752 # CA
363 1 -4.669892 -2.248901 27.333635 # CA
364 1 -3.903312 -3.410221 27.601612 # CA
365 1 -3.581908 -3.746382 28.941496 # CA
366 1 -2.456151 -4.564293 29.209473 # CA
367 1 -2.037123 -4.766086 30.549356 # CA
368 1 -0.695756 -5.136280 30.817333 # CA
369 1 -0.232543 -5.177970 32.157219 # CA
370 1 1.153368 -5.053236 32.425194 # CA
371 1 -5.099893 -0.925494 23.313982 # CA
372 1 -4.669892 -2.248901 23.581959 # CA
373 1 -4.449502 -2.658454 24.921843 # CA
374 1 -3.581908 -3.746382 25.189819 # CA
375 1 -3.231665 -4.052381 26.529705 # CA
376 1 -2.037123 -4.766086 26.797682 # CA
377 1 -1.601694 -4.929506 28.137566 # CA
378 1 -0.232543 -5.177970 28.405542 # CA
379 1 0.232543 -5.177970 29.745426 # CA
380 1 1.601694 -4.929506 30.013403 # CA
381 1 2.037123 -4.766086 31.353287 # CA
382 1 3.231665 -4.052381 31.621264 # CA
383 1 3.581908 -3.746382 32.961147 # CA
384 1 4.449502 -2.658454 33.229126 # CA
385 1 -4.193288 -3.046602 22.510052 # CA
386 1 -3.231665 -4.052381 22.778028 # CA
387 1 -2.855403 -4.325751 24.117912 # CA
388 1 -1.601694 -4.929506 24.385889 # CA
389 1 -1.153368 -5.053236 25.725775 # CA
390 1 0.232543 -5.177970 25.993752 # CA
391 1 0.695756 -5.136280 27.333635 # CA
392 1 2.037123 -4.766086 27.601612 # CA
393 1 2.456151 -4.564293 28.941496 # CA
394 1 3.581908 -3.746382 29.209473 # CA
395 1 3.903312 -3.410221 30.549356 # CA
396 1 4.669892 -2.248901 30.817333 # CA
397 1 4.852682 -1.821242 32.157219 # CA
398 1 5.162323 -0.464617 32.425194 # CA
399 1 -0.695756 -5.136280 23.313982 # CA
400 1 0.695756 -5.136280 23.581959 # CA
401 1 1.153368 -5.053236 24.921843 # CA
402 1 2.456151 -4.564293 25.189819 # CA
403 1 2.855403 -4.325751 26.529705 # CA
404 1 3.903312 -3.410221 26.797682 # CA
405 1 4.193288 -3.046602 28.137566 # CA
406 1 4.852682 -1.821242 28.405542 # CA
407 1 4.996402 -1.378919 29.745426 # CA
408 1 5.183189 -0.000000 30.013403 # CA
409 1 1.601694 -4.929506 22.510052 # CA
410 1 2.855403 -4.325751 22.778028 # CA
411 1 3.231665 -4.052381 24.117912 # CA
412 1 4.193288 -3.046602 24.385889 # CA
413 1 4.449502 -2.658454 25.725775 # CA
414 1 4.996402 -1.378919 25.993752 # CA
415 1 5.099893 -0.925494 27.333635 # CA
416 1 5.162323 0.464617 27.601612 # CA
417 1 4.669892 -2.248901 23.313982 # CA
418 1 5.099893 -0.925494 23.581959 # CA
419 1 5.162323 -0.464617 24.921843 # CA
420 1 5.099893 0.925494 25.189819 # CA
421 1 5.162323 0.464617 42.608315 # CA
422 1 4.852682 1.821242 42.876289 # CA
423 1 4.669892 2.248901 44.216175 # CA
424 1 3.903312 3.410221 44.484150 # CA
425 1 5.099893 0.925494 40.196522 # CA
426 1 4.669892 2.248901 40.464497 # CA
427 1 4.449502 2.658454 41.804382 # CA
428 1 3.581908 3.746382 42.072361 # CA
429 1 3.231665 4.052381 43.412243 # CA
430 1 2.037123 4.766086 43.680222 # CA
431 1 4.996402 1.378919 37.784729 # CA
432 1 4.449502 2.658454 38.052708 # CA
433 1 4.193288 3.046602 39.392590 # CA
434 1 3.231665 4.052381 39.660568 # CA
435 1 2.855403 4.325751 41.000454 # CA
436 1 1.601694 4.929506 41.268429 # CA
437 1 1.153368 5.053236 42.608315 # CA
438 1 -0.232543 5.177970 42.876289 # CA
439 1 -0.695756 5.136280 44.216175 # CA
440 1 -2.037123 4.766086 44.484150 # CA
441 1 5.183189 0.000000 33.765079 # CA
442 1 4.996402 1.378919 34.033054 # CA
443 1 4.852682 1.821242 35.372940 # CA
444 1 4.193288 3.046602 35.640915 # CA
445 1 3.903312 3.410221 36.980801 # CA
446 1 2.855403 4.325751 37.248775 # CA
447 1 2.456151 4.564293 38.588661 # CA
448 1 1.153368 5.053236 38.856636 # CA
449 1 0.695756 5.136280 40.196522 # CA
450 1 -0.695756 5.136280 40.464497 # CA
451 1 -1.153368 5.053236 41.804382 # CA
452 1 -2.456151 4.564293 42.072361 # CA
453 1 -2.855403 4.325751 43.412243 # CA
454 1 -3.903312 3.410221 43.680222 # CA
455 1 3.581908 3.746382 34.569008 # CA
456 1 2.456151 4.564293 34.836987 # CA
457 1 2.037123 4.766086 36.176868 # CA
458 1 0.695756 5.136280 36.444847 # CA
459 1 0.232543 5.177970 37.784729 # CA
460 1 -1.153368 5.053236 38.052708 # CA
461 1 -1.601694 4.929506 39.392590 # CA
462 1 -2.855403 4.325751 39.660568 # CA
463 1 -3.231665 4.052381 41.000454 # CA
464 1 -4.193288 3.046602 41.268429 # CA
465 1 -4.449502 2.658454 42.608315 # CA
466 1 -4.996402 1.378919 42.876289 # CA
467 1 -5.099893 0.925494 44.216175 # CA
468 1 -5.162323 -0.464617 44.484150 # CA
469 1 1.601694 4.929506 33.765079 # CA
470 1 0.232543 5.177970 34.033054 # CA
471 1 -0.232543 5.177970 35.372940 # CA
472 1 -1.601694 4.929506 35.640915 # CA
473 1 -2.037123 4.766086 36.980801 # CA
474 1 -3.231665 4.052381 37.248775 # CA
475 1 -3.581908 3.746382 38.588661 # CA
476 1 -4.449502 2.658454 38.856636 # CA
477 1 -4.669892 2.248901 40.196522 # CA
478 1 -5.099893 0.925494 40.464497 # CA
479 1 -5.162323 0.464617 41.804382 # CA
480 1 -5.099893 -0.925494 42.072361 # CA
481 1 -4.996402 -1.378919 43.412243 # CA
482 1 -4.449502 -2.658454 43.680222 # CA
483 1 -2.456151 4.564293 34.569008 # CA
484 1 -3.581908 3.746382 34.836987 # CA
485 1 -3.903312 3.410221 36.176868 # CA
486 1 -4.669892 2.248901 36.444847 # CA
487 1 -4.852682 1.821242 37.784729 # CA
488 1 -5.162323 0.464617 38.052708 # CA
489 1 -5.183189 0.000000 39.392590 # CA
490 1 -4.996402 -1.378919 39.660568 # CA
491 1 -4.852682 -1.821242 41.000454 # CA
492 1 -4.193288 -3.046602 41.268429 # CA
493 1 -3.903312 -3.410221 42.608315 # CA
494 1 -2.855403 -4.325751 42.876289 # CA
495 1 -2.456151 -4.564293 44.216175 # CA
496 1 -1.153368 -5.053236 44.484150 # CA
497 1 -4.193288 3.046602 33.765079 # CA
498 1 -4.852682 1.821242 34.033054 # CA
499 1 -4.996402 1.378919 35.372940 # CA
500 1 -5.183189 0.000000 35.640915 # CA
501 1 -5.162323 -0.464617 36.980801 # CA
502 1 -4.852682 -1.821242 37.248775 # CA
503 1 -4.669892 -2.248901 38.588661 # CA
504 1 -3.903312 -3.410221 38.856636 # CA
505 1 -3.581908 -3.746382 40.196522 # CA
506 1 -2.456151 -4.564293 40.464497 # CA
507 1 -2.037123 -4.766086 41.804382 # CA
508 1 -0.695756 -5.136280 42.072361 # CA
509 1 -0.232543 -5.177970 43.412243 # CA
510 1 1.153368 -5.053236 43.680222 # CA
511 1 -5.099893 -0.925494 34.569008 # CA
512 1 -4.669892 -2.248901 34.836987 # CA
513 1 -4.449502 -2.658454 36.176868 # CA
514 1 -3.581908 -3.746382 36.444847 # CA
515 1 -3.231665 -4.052381 37.784729 # CA
516 1 -2.037123 -4.766086 38.052708 # CA
517 1 -1.601694 -4.929506 39.392590 # CA
518 1 -0.232543 -5.177970 39.660568 # CA
519 1 0.232543 -5.177970 41.000454 # CA
520 1 1.601694 -4.929506 41.268429 # CA
521 1 2.037123 -4.766086 42.608315 # CA
522 1 3.231665 -4.052381 42.876289 # CA
523 1 3.581908 -3.746382 44.216175 # CA
524 1 4.449502 -2.658454 44.484150 # CA
525 1 -4.193288 -3.046602 33.765079 # CA
526 1 -3.231665 -4.052381 34.033054 # CA
527 1 -2.855403 -4.325751 35.372940 # CA
528 1 -1.601694 -4.929506 35.640915 # CA
529 1 -1.153368 -5.053236 36.980801 # CA
530 1 0.232543 -5.177970 37.248775 # CA
531 1 0.695756 -5.136280 38.588661 # CA
532 1 2.037123 -4.766086 38.856636 # CA
533 1 2.456151 -4.564293 40.196522 # CA
534 1 3.581908 -3.746382 40.464497 # CA
535 1 3.903312 -3.410221 41.804382 # CA
536 1 4.669892 -2.248901 42.072361 # CA
537 1 4.852682 -1.821242 43.412243 # CA
538 1 5.162323 -0.464617 43.680222 # CA
539 1 -0.695756 -5.136280 34.569008 # CA
540 1 0.695756 -5.136280 34.836987 # CA
541 1 1.153368 -5.053236 36.176868 # CA
542 1 2.456151 -4.564293 36.444847 # CA
543 1 2.855403 -4.325751 37.784729 # CA
544 1 3.903312 -3.410221 38.052708 # CA
545 1 4.193288 -3.046602 39.392590 # CA
546 1 4.852682 -1.821242 39.660568 # CA
547 1 4.996402 -1.378919 41.000454 # CA
548 1 5.183189 -0.000000 41.268429 # CA
549 1 1.601694 -4.929506 33.765079 # CA
550 1 2.855403 -4.325751 34.033054 # CA
551 1 3.231665 -4.052381 35.372940 # CA
552 1 4.193288 -3.046602 35.640915 # CA
553 1 4.449502 -2.658454 36.980801 # CA
554 1 4.996402 -1.378919 37.248775 # CA
555 1 5.099893 -0.925494 38.588661 # CA
556 1 5.162323 0.464617 38.856636 # CA
557 1 4.669892 -2.248901 34.569008 # CA
558 1 5.099893 -0.925494 34.836987 # CA
559 1 5.162323 -0.464617 36.176868 # CA
560 1 5.099893 0.925494 36.444847 # CA
561 1 5.162323 0.464617 53.863338 # CA
562 1 4.852682 1.821242 54.131317 # CA
563 1 4.669892 2.248901 55.471199 # CA
564 1 3.903312 3.410221 55.739178 # CA
565 1 5.099893 0.925494 51.451550 # CA
566 1 4.669892 2.248901 51.719524 # CA
567 1 4.449502 2.658454 53.059410 # CA
568 1 3.581908 3.746382 53.327385 # CA
569 1 3.231665 4.052381 54.667271 # CA
570 1 2.037123 4.766086 54.935246 # CA
571 1 4.996402 1.378919 49.039757 # CA
572 1 4.449502 2.658454 49.307732 # CA
573 1 4.193288 3.046602 50.647617 # CA
574 1 3.231665 4.052381 50.915596 # CA
575 1 2.855403 4.325751 52.255478 # CA
576 1 1.601694 4.929506 52.523457 # CA
577 1 1.153368 5.053236 53.863338 # CA
578 1 -0.232543 5.177970 54.131317 # CA
579 1 -0.695756 5.136280 55.471199 # CA
580 1 -2.037123 4.766086 55.739178 # CA
581 1 5.183189 0.000000 45.020103 # CA
582 1 4.996402 1.378919 45.288082 # CA
583 1 4.852682 1.821242 46.627964 # CA
584 1 4.193288 3.046602 46.895943 # CA
585 1 3.903312 3.410221 48.235825 # CA
586 1 2.855403 4.325751 48.503803 # CA
587 1 2.456151 4.564293 49.843685 # CA
588 1 1.153368 5.053236 50.111664 # CA
589 1 0.695756 5.136280 51.451550 # CA
590 1 -0.695756 5.136280 51.719524 # CA
591 1 -1.153368 5.053236 53.059410 # CA
592 1 -2.456151 4.564293 53.327385 # CA
593 1 -2.855403 4.325751 54.667271 # CA
594 1 -3.903312 3.410221 54.935246 # CA
595 1 3.581908 3.746382 45.824036 # CA
596 1 2.456151 4.564293 46.092010 # CA
597 1 2.037123 4.766086 47.431896 # CA
598 1 0.695756 5.136280 47.699871 # CA
599 1 0.232543 5.177970 49.039757 # CA
600 1 -1.153368 5.053236 49.307732 # CA
601 1 -1.601694 4.929506 50.647617 # CA
602 1 -2.855403 4.325751 50.915596 # CA
603 1 -3.231665 4.052381 52.255478 # CA
604 1 -4.193288 3.046602 52.523457 # CA
605 1 -4.449502 2.658454 53.863338 # CA
606 1 -4.996402 1.378919 54.131317 # CA
607 1 -5.099893 0.925494 55.471199 # CA
608 1 -5.162323 -0.464617 55.739178 # CA
609 1 1.601694 4.929506 45.020103 # CA
610 1 0.232543 5.177970 45.288082 # CA
611 1 -0.232543 5.177970 46.627964 # CA
612 1 -1.601694 4.929506 46.895943 # CA
613 1 -2.037123 4.766086 48.235825 # CA
614 1 -3.231665 4.052381 48.503803 # CA
615 1 -3.581908 3.746382 49.843685 # CA
616 1 -4.449502 2.658454 50.111664 # CA
617 1 -4.669892 2.248901 51.451550 # CA
618 1 -5.099893 0.925494 51.719524 # CA
619 1 -5.162323 0.464617 53.059410 # CA
620 1 -5.099893 -0.925494 53.327385 # CA
621 1 -4.996402 -1.378919 54.667271 # CA
622 1 -4.449502 -2.658454 54.935246 # CA
623 1 -2.456151 4.564293 45.824036 # CA
624 1 -3.581908 3.746382 46.092010 # CA
625 1 -3.903312 3.410221 47.431896 # CA
626 1 -4.669892 2.248901 47.699871 # CA
627 1 -4.852682 1.821242 49.039757 # CA
628 1 -5.162323 0.464617 49.307732 # CA
629 1 -5.183189 0.000000 50.647617 # CA
630 1 -4.996402 -1.378919 50.915596 # CA
631 1 -4.852682 -1.821242 52.255478 # CA
632 1 -4.193288 -3.046602 52.523457 # CA
633 1 -3.903312 -3.410221 53.863338 # CA
634 1 -2.855403 -4.325751 54.131317 # CA
635 1 -2.456151 -4.564293 55.471199 # CA
636 1 -1.153368 -5.053236 55.739178 # CA
637 1 -4.193288 3.046602 45.020103 # CA
638 1 -4.852682 1.821242 45.288082 # CA
639 1 -4.996402 1.378919 46.627964 # CA
640 1 -5.183189 0.000000 46.895943 # CA
641 1 -5.162323 -0.464617 48.235825 # CA
642 1 -4.852682 -1.821242 48.503803 # CA
643 1 -4.669892 -2.248901 49.843685 # CA
644 1 -3.903312 -3.410221 50.111664 # CA
645 1 -3.581908 -3.746382 51.451550 # CA
646 1 -2.456151 -4.564293 51.719524 # CA
647 1 -2.037123 -4.766086 53.059410 # CA
648 1 -0.695756 -5.136280 53.327385 # CA
649 1 -0.232543 -5.177970 54.667271 # CA
650 1 1.153368 -5.053236 54.935246 # CA
651 1 -5.099893 -0.925494 45.824036 # CA
652 1 -4.669892 -2.248901 46.092010 # CA
653 1 -4.449502 -2.658454 47.431896 # CA
654 1 -3.581908 -3.746382 47.699871 # CA
655 1 -3.231665 -4.052381 49.039757 # CA
656 1 -2.037123 -4.766086 49.307732 # CA
657 1 -1.601694 -4.929506 50.647617 # CA
658 1 -0.232543 -5.177970 50.915596 # CA
659 1 0.232543 -5.177970 52.255478 # CA
660 1 1.601694 -4.929506 52.523457 # CA
661 1 2.037123 -4.766086 53.863338 # CA
662 1 3.231665 -4.052381 54.131317 # CA
663 1 3.581908 -3.746382 55.471199 # CA
664 1 4.449502 -2.658454 55.739178 # CA
665 1 -4.193288 -3.046602 45.020103 # CA
666 1 -3.231665 -4.052381 45.288082 # CA
667 1 -2.855403 -4.325751 46.627964 # CA
668 1 -1.601694 -4.929506 46.895943 # CA
669 1 -1.153368 -5.053236 48.235825 # CA
670 1 0.232543 -5.177970 48.503803 # CA
671 1 0.695756 -5.136280 49.843685 # CA
672 1 2.037123 -4.766086 50.111664 # CA
673 1 2.456151 -4.564293 51.451550 # CA
674 1 3.581908 -3.746382 51.719524 # CA
675 1 3.903312 -3.410221 53.059410 # CA
676 1 4.669892 -2.248901 53.327385 # CA
677 1 4.852682 -1.821242 54.667271 # CA
678 1 5.162323 -0.464617 54.935246 # CA
679 1 -0.695756 -5.136280 45.824036 # CA
680 1 0.695756 -5.136280 46.092010 # CA
681 1 1.153368 -5.053236 47.431896 # CA
682 1 2.456151 -4.564293 47.699871 # CA
683 1 2.855403 -4.325751 49.039757 # CA
684 1 3.903312 -3.410221 49.307732 # CA
685 1 4.193288 -3.046602 50.647617 # CA
686 1 4.852682 -1.821242 50.915596 # CA
687 1 4.996402 -1.378919 52.255478 # CA
688 1 5.183189 -0.000000 52.523457 # CA
689 1 1.601694 -4.929506 45.020103 # CA
690 1 2.855403 -4.325751 45.288082 # CA
691 1 3.231665 -4.052381 46.627964 # CA
692 1 4.193288 -3.046602 46.895943 # CA
693 1 4.449502 -2.658454 48.235825 # CA
694 1 4.996402 -1.378919 48.503803 # CA
695 1 5.099893 -0.925494 49.843685 # CA
696 1 5.162323 0.464617 50.111664 # CA
697 1 4.669892 -2.248901 45.824036 # CA
698 1 5.099893 -0.925494 46.092010 # CA
699 1 5.162323 -0.464617 47.431896 # CA
700 1 5.099893 0.925494 47.699871 # CA

