LAMMPS (29 Aug 2024 - Update 2)
OMP_NUM_THREADS environment is not set. Defaulting to 1 thread. (src/comm.cpp:98)
  using 1 OpenMP thread(s) per MPI task
package gpu 1

#Initiailzaion
units 				metal
atom_style 			atomic
boundary 			p p p
read_data 			cnt.data
Reading data file ...
  orthogonal box = (-40 -40 -222.13041) to (40 40 277.86959)
  1 by 1 by 5 MPI processor grid
  reading atoms ...
  700 atoms
  read_data CPU = 0.002 seconds
pair_style 			airebo 3 1 1  #Source for cutoff(https://matsci.org/t/airebo-force-field-for-graphene/33406/4)
pair_coeff 			* * CH.airebo C
Reading airebo potential file CH.airebo with DATE: 2011-10-25

#Defining clamp/grip and mid regions
group 				cnt type 1
700 atoms in group cnt
variable 			zmax equal bound(cnt,zmax)-0.5
variable 			zmin equal bound(cnt,zmin)+0.5
region 				top block INF INF INF INF ${zmax} INF
region 				top block INF INF INF INF 55.239178 INF
group 				top region top
10 atoms in group top
region 				bot block INF INF INF INF INF ${zmin}
region 				bot block INF INF INF INF INF 0.5
group 				bot region bot
10 atoms in group bot
region 				mid block INF INF INF INF ${zmin} ${zmax}
region 				mid block INF INF INF INF 0.5 ${zmax}
region 				mid block INF INF INF INF 0.5 55.239178
group 				mid region mid
680 atoms in group mid

#Visualization
thermo				100
timestep 			0.0005
dump 				dump all atom 100 dump.visualition



velocity 			mid create 300 12345 mom yes rot yes  #Only motion of mid section atoms matter, which have to start moving as if they were in ambient conditions ,i.e., at 300K
fix 				nve all nve 			      #UTM has this case
compute 			Tmid mid temp 			      #Computing the only temperature that matters and using this to fluctuate the temperature of the entire cell
fix myber 			mid temp/berendsen 300 300 0.1        #Berensden not due to any particular reason. studied it in course.
fix_modify 			myber temp Tmid			      #Using temperature of mid section to control that of entire cell

#Oly for equilibration
fix 				topforce bot setforce 0 0 0	      #In clamp
fix 				topforce top setforce 0 0 0	      #In Clamp
WARNING: Replacing a fix, but new group != old group (src/modify.cpp:880)
velocity 			bot set 0 0 0
velocity 			top set 0 0 0

#Equilibiration
run 				5000

CITE-CITE-CITE-CITE-CITE-CITE-CITE-CITE-CITE-CITE-CITE-CITE-CITE

Your simulation uses code contributions which should be cited:

- GPU package (short-range, long-range and three-body potentials): doi:10.1016/j.cpc.2010.12.021, doi:10.1016/j.cpc.2011.10.012, doi:10.1016/j.cpc.2013.08.002, doi:10.1016/j.commatsci.2014.10.068, doi:10.1016/j.cpc.2016.10.020, doi:10.3233/APC200086

@Article{Brown11,
 author = {W. M. Brown and P. Wang and S. J. Plimpton and A. N. Tharrington},
 title = {Implementing Molecular Dynamics on Hybrid High Performance Computers---Short Range Forces},
 journal = {Comput.\ Phys.\ Commun.},
 year =    2011,
 volume =  182,
 pages =   {898--911},
 doi =     {10.1016/j.cpc.2010.12.021}
}

@Article{Brown12,
 author = {W. M. Brown and A. Kohlmeyer and S. J. Plimpton and A. N. Tharrington},
 title = {Implementing Molecular Dynamics on Hybrid High Performance Computers - Particle-Particle Particle-Mesh},
 journal = {Comput.\ Phys.\ Commun.},
 year =    2012,
 volume =  183,
 doi =     {10.1016/j.cpc.2011.10.012},
 pages =   {449--459}
}

@Article{Brown13,
 author = {W. M. Brown and Y. Masako},
 title = {Implementing Molecular Dynamics on Hybrid High Performance Computers---Three-Body Potentials},
 journal = {Comput.\ Phys.\ Commun.},
 year =    2013,
 volume =  184,
 pages =   {2785--2793},
 doi =     {10.1016/j.cpc.2013.08.002},
}

@Article{Trung15,
 author = {T. D. Nguyen and S. J. Plimpton},
 title = {Accelerating Dissipative Particle Dynamics Simulations for Soft Matter Systems},
 journal = {Comput.\ Mater.\ Sci.},
 year =    2015,
 doi =     {10.1016/j.commatsci.2014.10.068},
 volume =  100,
 pages =   {173--180}
}

@Article{Trung17,
 author = {T. D. Nguyen},
 title = {{GPU}-Accelerated {T}ersoff Potentials for Massively Parallel
    Molecular Dynamics Simulations},
 journal = {Comput.\ Phys.\ Commun.},
 year =    2017,
 doi =     {10.1016/j.cpc.2016.10.020},
 volume =  212,
 pages =   {113--122}
}

@inproceedings{Nikolskiy19,
 author = {V. Nikolskiy and V. Stegailov},
 title = {{GPU} Acceleration of Four-Site Water Models in {LAMMPS}},
 booktitle = {Proceedings of the International Conference on Parallel
    Computing (ParCo 2019), Prague, Czech Republic},
 doi =     {10.3233/APC200086},
 year =    2019
}

CITE-CITE-CITE-CITE-CITE-CITE-CITE-CITE-CITE-CITE-CITE-CITE-CITE

Neighbor list info ...
  update: every = 1 steps, delay = 0 steps, check = yes
  max neighbors/atom: 2000, page size: 100000
  master list distance cutoff = 12.2
  ghost atom cutoff = 12.2
  binsize = 6.1, bins = 14 14 82
  1 neighbor lists, perpetual/occasional/extra = 1 0 0
  (1) pair airebo, perpetual
      attributes: full, newton on, ghost
      pair build: full/bin/ghost
      stencil: full/ghost/bin/3d
      bin: standard
Per MPI rank memory allocation (min/avg/max) = 3.782 | 3.887 | 4.31 Mbytes
   Step          Temp          E_pair         E_mol          TotEng         Press     
         0   291.41631     -5084.8687      0             -5058.5384     -170.95196    
       100   250.81629     -5076.9657      0             -5054.3038     -18.18853     
       200   248.02351     -5073.293       0             -5050.8833     -7.5149219    
       300   228.49851     -5069.407       0             -5048.7615     -129.09335    
       400   283.30316     -5073.1256      0             -5047.5284      27.560174    
       500   293.70417     -5073.1427      0             -5046.6057      53.884186    
       600   270.09784     -5070.5453      0             -5046.1412     -95.011529    
       700   283.69835     -5071.3564      0             -5045.7235      69.270835    
       800   281.80276     -5070.2102      0             -5044.7485      94.291905    
       900   275.90912     -5068.9334      0             -5044.0042     -39.554037    
      1000   279.81972     -5068.5406      0             -5043.2581      109.54024    
      1100   281.07446     -5067.4785      0             -5042.0826      137.17145    
      1200   281.85631     -5066.8376      0             -5041.3711     -10.912337    
      1300   312.88763     -5069.7879      0             -5041.5176      75.313243    
      1400   299.68257     -5068.6506      0             -5041.5734      71.620563    
      1500   304.63006     -5069.2054      0             -5041.6813     -47.486032    
      1600   322.3482      -5071.6766      0             -5042.5515      10.027438    
      1700   297.30789     -5069.7609      0             -5042.8983      16.360466    
      1800   292.87388     -5069.0189      0             -5042.5569     -49.682963    
      1900   305.99451     -5070.2895      0             -5042.6421     -57.375431    
      2000   270.94313     -5066.4235      0             -5041.9431     -35.463051    
      2100   290.41503     -5067.3826      0             -5041.1427     -61.166837    
      2200   286.93133     -5066.8301      0             -5040.905      -115.75318    
      2300   288.23069     -5066.2383      0             -5040.1958     -58.951227    
      2400   312.22579     -5068.2789      0             -5040.0684     -7.8988156    
      2500   307.66937     -5068.4232      0             -5040.6244     -82.820602    
      2600   315.77207     -5069.5676      0             -5041.0367     -8.5692125    
      2700   315.40168     -5070.1398      0             -5041.6424      45.376124    
      2800   312.09543     -5070.6027      0             -5042.404      -41.609398    
      2900   291.40099     -5068.9119      0             -5042.583       22.789183    
      3000   289.58246     -5068.6736      0             -5042.509       97.325239    
      3100   273.83833     -5066.9403      0             -5042.1982      0.61002736   
      3200   291.04498     -5067.9605      0             -5041.6637      78.795504    
      3300   277.13826     -5066.0218      0             -5040.9816      121.22154    
      3400   285.86085     -5066.5524      0             -5040.7241      20.17042     
      3500   305.45388     -5068.3835      0             -5040.7849      43.261964    
      3600   293.79656     -5067.6649      0             -5041.1195      57.542915    
      3700   307.49282     -5069.1708      0             -5041.3879     -23.364493    
      3800   306.67764     -5069.7566      0             -5042.0474     -7.044278     
      3900   307.86039     -5070.5412      0             -5042.7252      4.0835066    
      4000   298.85012     -5069.448       0             -5042.446      -41.495426    
      4100   294.99793     -5068.9643      0             -5042.3104     -55.790828    
      4200   285.836       -5067.8405      0             -5042.0144     -40.555109    
      4300   268.43383     -5065.3941      0             -5041.1404     -68.81917     
      4400   283.67417     -5066.4008      0             -5040.7701     -91.591241    
      4500   291.08493     -5066.6067      0             -5040.3063     -61.591374    
      4600   304.02441     -5067.6171      0             -5040.1476     -17.070919    
      4700   304.45541     -5068.1575      0             -5040.6491     -55.499304    
      4800   302.0467      -5068.4626      0             -5041.1718     -10.930176    
      4900   325.11257     -5071.0885      0             -5041.7136      39.171818    
      5000   305.94732     -5070.013       0             -5042.3698     -24.222724    
Loop time of 20.7841 on 5 procs for 5000 steps with 700 atoms

Performance: 10.393 ns/day, 2.309 hours/ns, 240.569 timesteps/s, 168.398 katom-step/s
99.8% CPU use with 5 MPI tasks x 1 OpenMP threads

MPI task timing breakdown:
Section |  min time  |  avg time  |  max time  |%varavg| %total
---------------------------------------------------------------
Pair    | 0.00087063 | 4.1397     | 20.694     | 406.8 | 19.92
Neigh   | 3.4297e-05 | 0.0017276  | 0.0084831  |   8.1 |  0.01
Comm    | 0.00090963 | 0.0012906  | 0.0016515  |   0.7 |  0.01
Output  | 0.015018   | 0.016963   | 0.018125   |   1.0 |  0.08
Modify  | 0.039627   | 16.599     | 20.741     | 203.2 | 79.87
Other   |            | 0.0251     |            |       |  0.12

Nlocal:            140 ave         700 max           0 min
Histogram: 4 0 0 0 0 0 0 0 0 1
Nghost:              0 ave           0 max           0 min
Histogram: 5 0 0 0 0 0 0 0 0 0
Neighs:              0 ave           0 max           0 min
Histogram: 5 0 0 0 0 0 0 0 0 0
FullNghs:      30468.8 ave      152344 max           0 min
Histogram: 4 0 0 0 0 0 0 0 0 1

Total # of neighbors = 152344
Ave neighs/atom = 217.63429
Neighbor list builds = 7
Dangerous builds = 0

#Deformation
velocity top set 0 0 0.15
run 280000
Per MPI rank memory allocation (min/avg/max) = 3.83 | 4.132 | 5.336 Mbytes
   Step          Temp          E_pair         E_mol          TotEng         Press     
      5000   305.94887     -5070.013       0             -5042.3697     -24.222677    
      5100   292.27352     -5068.9046      0             -5042.4968      13.438398    
      5200   287.82658     -5068.3745      0             -5042.3685      84.63321     
      5300   295.83982     -5069.0334      0             -5042.3035      19.044993    
      5400   286.48614     -5067.6691      0             -5041.7843      52.408092    
      5500   275.60116     -5066.1971      0             -5041.2957      118.67309    
      5600   300.799       -5068.361       0             -5041.183       22.054237    
      5700   293.3569      -5067.6833      0             -5041.1777      16.922406    
      5800   295.73652     -5068.2665      0             -5041.5459      59.973241    
      5900   302.38901     -5069.1744      0             -5041.8527     -10.716626    
      6000   311.69287     -5070.4746      0             -5042.3123     -31.196272    
      6100   294.43837     -5069.198       0             -5042.5947      29.766134    
      6200   293.01424     -5068.7667      0             -5042.292      -37.909697    
      6300   292.76554     -5068.5308      0             -5042.0786     -72.78895     
      6400   288.46306     -5067.7844      0             -5041.721      -20.153817    
      6500   284.83753     -5067.0951      0             -5041.3593     -60.446218    
      6600   285.66355     -5066.593       0             -5040.7825     -105.25791    
      6700   301.39153     -5067.7347      0             -5040.5031     -14.460972    
      6800   309.48251     -5068.7084      0             -5040.7458     -30.376762    
      6900   297.84099     -5067.7731      0             -5040.8623     -57.526093    
      7000   310.60123     -5069.5164      0             -5041.4527      21.058827    
      7100   301.39059     -5069.1164      0             -5041.8849      18.19113     
      7200   297.90372     -5069.254       0             -5042.3375     -28.562073    
      7300   300.91181     -5069.8632      0             -5042.675       47.870542    
      7400   284.50422     -5068.0074      0             -5042.3016      60.302924    
      7500   288.43686     -5068.2475      0             -5042.1864      26.624541    
      7600   280.39963     -5067.1913      0             -5041.8564      66.30937     
      7700   276.07115     -5066.1792      0             -5041.2354      90.274818    
      7800   310.30642     -5069.3667      0             -5041.3297      22.19376     
      7900   298.80863     -5068.4737      0             -5041.4755      21.24313     
      8000   289.02266     -5067.6369      0             -5041.5228      48.678285    
      8100   325.85726     -5071.3428      0             -5041.9007     -19.550516    
      8200   291.43205     -5068.6114      0             -5042.2797     -23.640368    
      8300   281.67238     -5067.7299      0             -5042.28        24.602874    
      8400   299.18383     -5069.0288      0             -5041.9967     -42.699104    
      8500   287.83825     -5067.6961      0             -5041.6891     -67.142707    
      8600   280.94346     -5066.9043      0             -5041.5203     -12.694031    
      8700   285.88866     -5067.0146      0             -5041.1837     -75.043393    
      8800   289.81207     -5066.7309      0             -5040.5455     -85.889729    
      8900   294.29653     -5067.0417      0             -5040.4511     -11.898718    
      9000   294.29833     -5067.4258      0             -5040.8351     -40.521569    
      9100   301.02605     -5068.1347      0             -5040.9362     -47.98827     
      9200   296.96835     -5068.2436      0             -5041.4117      36.804468    
      9300   308.89401     -5069.8842      0             -5041.9747     -3.1777443    
      9400   301.71672     -5069.5426      0             -5042.2816     -20.182284    
      9500   286.28967     -5068.3382      0             -5042.4711      59.03478     
      9600   290.59409     -5068.5952      0             -5042.3392      40.535178    
      9700   287.57332     -5068.0897      0             -5042.1066      19.35954     
      9800   288.24047     -5067.8852      0             -5041.8419      97.516265    
      9900   288.89621     -5067.4545      0             -5041.3519      60.462526    
     10000   287.38772     -5067.1923      0             -5041.226       16.70227     
     10100   303.47874     -5068.9863      0             -5041.5661      50.533072    
     10200   304.96476     -5069.0148      0             -5041.4604      16.700626    
     10300   306.15591     -5069.5266      0             -5041.8646     -24.956719    
     10400   300.4645      -5069.4527      0             -5042.3049      6.9975075    
     10500   290.15827     -5068.3742      0             -5042.1575      0.052389375  
     10600   302.3733      -5069.4486      0             -5042.1283     -52.414621    
     10700   302.62349     -5069.244       0             -5041.9011     -39.269631    
     10800   278.6563      -5066.4882      0             -5041.3108     -36.906878    
     10900   292.3928      -5067.5106      0             -5041.0921     -82.023854    
     11000   298.96133     -5067.6946      0             -5040.6826     -60.550231    
     11100   292.72669     -5067.1313      0             -5040.6826     -15.782859    
     11200   302.8245      -5068.3326      0             -5040.9716     -48.391443    
     11300   295.7511      -5067.7884      0             -5041.0664     -17.591309    
     11400   306.26485     -5069.2176      0             -5041.5457      25.019062    
     11500   304.341       -5069.6466      0             -5042.1485     -17.778777    
     11600   291.84576     -5068.7534      0             -5042.3843      0.030457661  
     11700   296.19084     -5069.2169      0             -5042.4553      57.329472    
     11800   281.85515     -5067.7515      0             -5042.2851      22.471415    
     11900   279.95993     -5067.3911      0             -5042.0959      41.010293    
     12000   284.43087     -5067.3214      0             -5041.6223      83.839107    
     12100   294.18572     -5067.8452      0             -5041.2647      44.937772    
     12200   297.09165     -5068.0709      0             -5041.2278      15.242659    
     12300   292.496       -5067.9472      0             -5041.5194      49.401813    
     12400   296.9285      -5068.4549      0             -5041.6266      0.18614983   
     12500   292.79324     -5068.2481      0             -5041.7934     -15.04899     
     12600   292.0324      -5068.6494      0             -5042.2634      7.0831047    
     12700   290.3138      -5068.365       0             -5042.1343     -16.400074    
     12800   278.72266     -5067.2369      0             -5042.0535     -49.171739    
     12900   283.47238     -5067.3878      0             -5041.7753     -32.5236      
     13000   284.23138     -5067.0161      0             -5041.335      -47.303613    
     13100   284.5774      -5066.7596      0             -5041.0472     -74.030877    
     13200   292.00989     -5067.137       0             -5040.753      -46.342141    
     13300   304.91698     -5068.3175      0             -5040.7674     -32.139479    
     13400   292.83053     -5067.4368      0             -5040.9788     -42.119861    
     13500   306.06198     -5068.8912      0             -5041.2377     -2.7413409    
     13600   300.16611     -5068.7017      0             -5041.5808      13.750569    
     13700   297.82522     -5068.9427      0             -5042.0333     -5.3400402    
     13800   296.27863     -5069.1009      0             -5042.3313      14.312868    
     13900   301.79739     -5069.6424      0             -5042.3741      44.309377    
     14000   282.8177      -5067.7249      0             -5042.1715      27.898953    
     14100   290.13608     -5068.1721      0             -5041.9574      49.779855    
     14200   286.59409     -5067.4654      0             -5041.5708      74.594232    
     14300   292.67044     -5067.7514      0             -5041.3077      35.642121    
     14400   292.8049      -5068.0101      0             -5041.5544      31.899299    
     14500   294.1294      -5068.2088      0             -5041.6333      33.818578    
     14600   289.57279     -5068.0439      0             -5041.8802     -5.5404101    
     14700   310.70791     -5070.1982      0             -5042.1249     -12.340135    
     14800   300.28258     -5069.453       0             -5042.3216      7.8346919    
     14900   304.44918     -5069.7313      0             -5042.2235     -30.176798    
     15000   304.56814     -5069.5257      0             -5042.0071     -36.491255    
     15100   294.97284     -5068.3602      0             -5041.7085     -34.72811     
     15200   288.45414     -5067.3319      0             -5041.2693     -55.40031     
     15300   279.97678     -5066.2384      0             -5040.9417     -64.814904    
     15400   299.07342     -5067.8539      0             -5040.8318     -40.08589     
     15500   285.86908     -5066.6254      0             -5040.7963     -32.320846    
     15600   305.75968     -5068.66        0             -5041.0337     -28.702457    
     15700   304.03826     -5068.8142      0             -5041.3435     -3.7702181    
     15800   296.97625     -5068.5415      0             -5041.7089      9.9871783    
     15900   300.67887     -5069.2566      0             -5042.0894      0.71425407   
     16000   294.66971     -5069.0323      0             -5042.4081      18.847992    
     16100   289.66603     -5068.5357      0             -5042.3635      36.764934    
     16200   290.79442     -5068.4838      0             -5042.2097      38.453597    
     16300   286.42921     -5067.9319      0             -5042.0522      46.899319    
     16400   280.30805     -5066.8208      0             -5041.4942      75.512952    
     16500   295.80796     -5068.2399      0             -5041.5128      33.168716    
     16600   295.92126     -5068.3377      0             -5041.6003      22.189477    
     16700   297.73997     -5068.5792      0             -5041.6775      39.211208    
     16800   301.80847     -5069.182       0             -5041.9127     -11.464532    
     16900   297.57385     -5068.8974      0             -5042.0108     -10.592723    
     17000   304.94063     -5069.7531      0             -5042.2009      13.378137    
     17100   301.25312     -5069.448       0             -5042.229      -38.814181    
     17200   285.09316     -5067.6441      0             -5041.8852     -39.153071    
     17300   288.49613     -5067.602       0             -5041.5355     -21.657656    
     17400   279.64051     -5066.4628      0             -5041.1965     -69.971687    
     17500   290.8725      -5067.1867      0             -5040.9055     -59.896798    
     17600   295.26447     -5067.649       0             -5040.971      -20.831564    
     17700   292.49608     -5067.5124      0             -5041.0845     -42.856465    
     17800   299.94774     -5068.2948      0             -5041.1936     -19.648768    
     17900   313.99961     -5069.8087      0             -5041.438       18.357317    
     18000   312.52775     -5070.1517      0             -5041.914      -4.8879974    
     18100   300.55781     -5069.4036      0             -5042.2473      4.669001     
     18200   285.351       -5068.1099      0             -5042.3276      37.043405    
     18300   291.38244     -5068.5424      0             -5042.2152      25.953849    
     18400   285.7785      -5067.9659      0             -5042.145       37.638537    
     18500   293.85399     -5068.4987      0             -5041.9482      71.041124    
     18600   284.04606     -5067.1906      0             -5041.5262      43.430856    
     18700   300.25798     -5068.6591      0             -5041.5299      35.647227    
     18800   304.97953     -5069.2602      0             -5041.7045      39.5793      
     18900   291.85645     -5068.2087      0             -5041.8386      9.820525     
     19000   297.29707     -5068.867       0             -5042.0054     -11.380724    
     19100   300.78598     -5069.4656      0             -5042.2887      2.1945174    
     19200   293.88067     -5068.7948      0             -5042.2418     -10.347046    
     19300   293.20491     -5068.6217      0             -5042.1298     -33.502758    
     19400   286.36328     -5067.7371      0             -5041.8634     -28.338338    
     19500   289.84192     -5067.687       0             -5041.4989     -36.809298    
     19600   302.48137     -5068.6474      0             -5041.3174     -67.522443    
     19700   293.09272     -5067.4444      0             -5040.9626     -46.883347    
     19800   296.8581      -5067.7579      0             -5040.936      -29.676137    
     19900   303.20043     -5068.5593      0             -5041.1643     -38.546176    
     20000   307.37547     -5068.9277      0             -5041.1554     -7.2524846    
     20100   302.79361     -5068.715       0             -5041.3568      15.145487    
     20200   313.23987     -5070.307       0             -5042.0049     -8.2124804    
     20300   302.48976     -5069.5676      0             -5042.2368      9.9937485    
     20400   291.91717     -5068.5545      0             -5042.1789      41.846733    
     20500   284.7016      -5067.8279      0             -5042.1043      19.001814    
     20600   288.79662     -5068.091       0             -5041.9974      41.775569    
     20700   276.78148     -5066.7166      0             -5041.7086      69.48225     
     20800   293.51795     -5068.0578      0             -5041.5376      33.360924    
     20900   304.19244     -5069.0533      0             -5041.5687      31.052697    
     21000   304.9289      -5069.2872      0             -5041.736       36.958894    
     21100   294.17045     -5068.3837      0             -5041.8045     -5.7140855    
     21200   304.10656     -5069.6177      0             -5042.1408     -12.35303     
     21300   304.77456     -5069.8178      0             -5042.2805      8.1778911    
     21400   294.76402     -5068.9413      0             -5042.3085     -23.058409    
     21500   295.05078     -5068.6235      0             -5041.9649     -32.406241    
     21600   290.01688     -5067.9785      0             -5041.7747     -19.719783    
     21700   290.18076     -5067.6746      0             -5041.456      -52.453582    
     21800   287.38221     -5067.2934      0             -5041.3276     -67.101303    
     21900   289.50229     -5067.2114      0             -5041.054      -28.391793    
     22000   292.59159     -5067.3388      0             -5040.9024     -28.951243    
     22100   302.16694     -5068.4131      0             -5041.1115     -41.74672     
     22200   297.17189     -5068.1931      0             -5041.3428      5.8299714    
     22300   315.7807      -5070.2105      0             -5041.6788      11.033524    
     22400   307.72756     -5069.8253      0             -5042.0213     -14.26299     
     22500   296.46252     -5069.0751      0             -5042.2889      27.303645    
     22600   289.1917      -5068.419       0             -5042.2898      32.587851    
     22700   291.16391     -5068.3227      0             -5042.0152      10.00237     
     22800   291.1241      -5068.3194      0             -5042.0156      51.797806    
     22900   293.15985     -5068.2484      0             -5041.7605      60.546226    
     23000   285.36177     -5067.3093      0             -5041.5261      26.889148    
     23100   295.34786     -5068.2387      0             -5041.5532      40.857647    
     23200   293.15397     -5068.2614      0             -5041.7741      23.090287    
     23300   304.30549     -5069.4062      0             -5041.9113     -11.065467    
     23400   300.1999      -5069.2463      0             -5042.1224      4.7052081    
     23500   298.39624     -5069.1503      0             -5042.1894     -4.1268536    
     23600   301.68746     -5069.4161      0             -5042.1577     -24.993239    
     23700   279.75925     -5067.2339      0             -5041.9568     -23.353592    
     23800   295.2541      -5068.4473      0             -5041.7703     -26.340186    
     23900   293.48788     -5068.1274      0             -5041.6099     -57.862515    
     24000   304.5106      -5068.8148      0             -5041.3014     -53.686495    
     24100   299.26339     -5068.0999      0             -5041.0606     -30.715442    
     24200   301.0276      -5068.4514      0             -5041.2527     -40.023167    
     24300   305.76323     -5068.8243      0             -5041.1977     -17.868318    
     24400   289.22963     -5067.6327      0             -5041.5         1.9352226    
     24500   305.42174     -5069.3996      0             -5041.8038     -5.1127786    
     24600   297.87019     -5069.0163      0             -5042.1029      7.399836     
     24700   281.91634     -5067.7295      0             -5042.2576      25.940269    
     24800   292.25204     -5068.7131      0             -5042.3073      17.964975    
     24900   299.52162     -5069.1519      0             -5042.0892      35.231107    
     25000   289.62044     -5068.1353      0             -5041.9673      57.418402    
     25100   301.44851     -5069.0071      0             -5041.7704      41.60472     
     25200   281.30996     -5067.0697      0             -5041.6525      31.492726    
     25300   300.12878     -5068.7746      0             -5041.6571      42.520389    
     25400   302.60063     -5069.0998      0             -5041.759       7.9801126    
     25500   292.56508     -5068.36        0             -5041.9259     -11.62452     
     25600   299.52206     -5069.224       0             -5042.1614      16.195045    
     25700   305.97575     -5069.7893      0             -5042.1435     -18.700425    
     25800   300.13183     -5069.0622      0             -5041.9444     -34.215698    
     25900   288.75518     -5067.9108      0             -5041.821      -7.1873393    
     26000   289.47582     -5067.8764      0             -5041.7214     -42.206224    
     26100   307.75917     -5069.2133      0             -5041.4064     -59.83066     
     26200   287.50062     -5067.0907      0             -5041.1142     -30.781569    
     26300   302.06554     -5068.2977      0             -5041.0052     -46.253779    
     26400   303.11838     -5068.3559      0             -5040.9683     -42.00692     
     26500   304.52558     -5068.8303      0             -5041.3156      3.7278823    
     26600   315.59664     -5069.9409      0             -5041.4258     -4.4316884    
     26700   288.0013      -5067.7274      0             -5041.7056     -9.3530746    
     26800   305.56622     -5069.6223      0             -5042.0135      26.322694    
     26900   290.66619     -5068.3154      0             -5042.0528      20.537462    
     27000   292.00287     -5068.4123      0             -5042.029       11.588289    
     27100   294.72542     -5068.5221      0             -5041.8928      50.104767    
     27200   291.9793      -5068.1164      0             -5041.7352      46.08634     
     27300   294.93037     -5068.1777      0             -5041.5299      39.339067    
     27400   315.54232     -5069.9727      0             -5041.4626      49.572356    
     27500   307.34363     -5069.2689      0             -5041.4995      25.006035    
     27600   301.30207     -5068.7667      0             -5041.5432     -3.6122589    
     27700   292.45102     -5068.1987      0             -5041.7749      6.7321732    
     27800   305.01344     -5069.5666      0             -5042.0077     -1.9986816    
     27900   299.89424     -5069.1089      0             -5042.0126     -26.54001     
     28000   283.587       -5067.5442      0             -5041.9213     -13.173755    
     28100   292.0579      -5068.1999      0             -5041.8116     -22.391617    
     28200   299.44775     -5068.7426      0             -5041.6866     -52.915957    
     28300   284.57255     -5067.0952      0             -5041.3832     -43.466961    
     28400   294.65393     -5067.8729      0             -5041.2501     -38.541799    
     28500   291.838       -5067.4344      0             -5041.066      -52.641428    
     28600   305.33915     -5068.8869      0             -5041.2986     -18.819433    
     28700   299.47559     -5068.4648      0             -5041.4063      3.3447623    
     28800   300.59325     -5068.7128      0             -5041.5533     -17.8025      
     28900   306.9182      -5069.6511      0             -5041.9202      3.1967211    
     29000   298.41589     -5069.0652      0             -5042.1025      25.347882    
     29100   302.99288     -5069.5744      0             -5042.1982      9.6416613    
     29200   287.68518     -5068.1769      0             -5042.1837      27.74958     
     29300   278.31275     -5067.1752      0             -5042.0289      48.840586    
     29400   295.06777     -5068.5273      0             -5041.867       40.362531    
     29500   291.20941     -5067.9562      0             -5041.6446      35.055445    
     29600   302.07379     -5068.8302      0             -5041.537       46.086638    
     29700   306.75261     -5069.3177      0             -5041.6017      14.714403    
     29800   296.4332      -5068.5843      0             -5041.8007      1.7148812    
     29900   300.31255     -5069.0975      0             -5041.9634      11.68688     
     30000   289.75065     -5068.2487      0             -5042.0689     -11.643005    
     30100   289.01643     -5068.3045      0             -5042.1911     -24.481564    
     30200   295.7194      -5068.6394      0             -5041.9203     -15.057834    
     30300   293.81933     -5068.2298      0             -5041.6824     -34.494553    
     30400   303.65639     -5068.956       0             -5041.5198     -47.25217     
     30500   294.87074     -5067.8118      0             -5041.1694     -38.8426      
     30600   297.72245     -5067.9589      0             -5041.0589     -39.185211    
     30700   305.45714     -5068.5419      0             -5040.943      -48.735802    
     30800   303.77692     -5068.6941      0             -5041.2469     -14.16647     
     30900   313.83923     -5069.8281      0             -5041.4718     -4.7037557    
     31000   305.23727     -5069.2893      0             -5041.7102     -7.1492675    
     31100   303.50845     -5069.4084      0             -5041.9856      10.617807    
     31200   294.84289     -5068.7366      0             -5042.0967      24.407666    
     31300   291.54718     -5068.5694      0             -5042.2273      9.3894985    
     31400   293.96462     -5068.7111      0             -5042.1506      33.796556    
     31500   277.12144     -5066.9877      0             -5041.9489      46.973549    
     31600   284.4882      -5067.4866      0             -5041.7823      28.418556    
     31700   291.89163     -5067.8693      0             -5041.4961      44.3532      
     31800   297.36106     -5068.2872      0             -5041.4198      38.494922    
     31900   291.57527     -5067.9829      0             -5041.6382     -2.3069601    
     32000   308.16271     -5069.5069      0             -5041.6635      13.191329    
     32100   288.52529     -5067.8472      0             -5041.7781      6.323302     
     32200   292.93039     -5068.445       0             -5041.9779     -24.45049     
     32300   297.91387     -5068.7894      0             -5041.8721     -12.525689    
     32400   290.24872     -5068.0314      0             -5041.8066     -10.184491    
     32500   298.10676     -5068.5987      0             -5041.6639     -48.328648    
     32600   288.13172     -5067.4253      0             -5041.3918     -36.253359    
     32700   283.47357     -5066.8404      0             -5041.2278     -30.89057     
     32800   301.18388     -5068.3484      0             -5041.1355     -57.661777    
     32900   310.91173     -5069.1401      0             -5041.0484     -27.42841     
     33000   304.9809      -5068.7819      0             -5041.226      -6.7573947    
     33100   299.91925     -5068.5823      0             -5041.4838     -22.131327    
     33200   303.69332     -5069.1682      0             -5041.7287      6.2320672    
     33300   293.95234     -5068.4787      0             -5041.9193      16.896918    
     33400   304.20362     -5069.6662      0             -5042.1805      2.0187704    
     33500   287.15576     -5068.2318      0             -5042.2864      25.349115    
     33600   288.1128      -5068.263       0             -5042.2312      47.721002    
     33700   286.60614     -5068.032       0             -5042.1363      22.602534    
     33800   292.02119     -5068.171       0             -5041.786       48.456892    
     33900   293.78818     -5068.1719      0             -5041.6273      48.899443    
     34000   291.61616     -5068.054       0             -5041.7056      11.107346    
     34100   299.94213     -5068.8283      0             -5041.7277      21.252326    
     34200   296.13761     -5068.6335      0             -5041.8767      11.837056    
     34300   301.90927     -5069.2717      0             -5041.9933     -18.124818    
     34400   303.85311     -5069.4994      0             -5042.0454     -8.5466414    
     34500   294.77066     -5068.705       0             -5042.0716     -9.4204695    
     34600   293.14581     -5068.3058      0             -5041.8192     -40.190135    
     34700   288.21889     -5067.7114      0             -5041.67       -27.222764    
     34800   300.34505     -5068.7083      0             -5041.5713     -32.170433    
     34900   291.37332     -5067.5995      0             -5041.2731     -54.703417    
     35000   300.53586     -5068.2969      0             -5041.1426     -37.542543    
     35100   301.22717     -5068.4223      0             -5041.2056     -23.66943     
     35200   303.16905     -5068.6387      0             -5041.2465     -27.922325    
     35300   305.20595     -5069.0453      0             -5041.4691     -1.4528588    
     35400   300.07338     -5068.7873      0             -5041.6749      12.381463    
     35500   301.07406     -5069.1101      0             -5041.9072     -1.2776142    
     35600   300.65617     -5069.2437      0             -5042.0785      17.939626    
     35700   288.41348     -5068.1745      0             -5042.1155      28.937091    
     35800   304.23664     -5069.4758      0             -5041.9871      22.37774     
     35900   287.36779     -5067.7863      0             -5041.8218      43.504783    
     36000   305.49658     -5069.1744      0             -5041.572       48.151981    
     36100   293.41877     -5068.039       0             -5041.5278      32.053444    
     36200   298.95383     -5068.6041      0             -5041.5928      22.296461    
     36300   295.69952     -5068.3976      0             -5041.6803      18.643879    
     36400   292.10369     -5068.2349      0             -5041.8426     -6.7233563    
     36500   299.75992     -5069.0592      0             -5041.975      -9.3756238    
     36600   296.83662     -5069.04        0             -5042.22       -6.5782261    
     36700   284.37199     -5067.882       0             -5042.1881     -25.626561    
     36800   298.30835     -5068.8862      0             -5041.9332     -25.40196     
     36900   289.37221     -5067.7904      0             -5041.6448     -26.784302    
     37000   284.03127     -5067.075       0             -5041.412      -46.865193    
     37100   292.20779     -5067.6798      0             -5041.278      -49.754813    
     37200   293.42857     -5067.6494      0             -5041.1373     -28.516236    
     37300   299.16396     -5068.1809      0             -5041.1506     -32.097535    
     37400   307.09175     -5069.1803      0             -5041.4337     -16.87952     
     37500   308.92372     -5069.4501      0             -5041.538       12.197067    
     37600   292.31343     -5068.2627      0             -5041.8514      1.1075861    
     37700   297.94672     -5068.9782      0             -5042.0578      8.0333072    
     37800   303.88617     -5069.5952      0             -5042.1382      28.21341     
     37900   297.19167     -5068.9307      0             -5042.0786      19.527581    
     38000   299.38119     -5069.0412      0             -5041.9912      29.548028    
     38100   292.81978     -5068.3599      0             -5041.9028      49.777603    
     38200   280.09157     -5066.9568      0             -5041.6497      36.195299    
     38300   296.45137     -5068.4879      0             -5041.7027      28.278065    
     38400   297.49337     -5068.5991      0             -5041.7197      29.867699    
     38500   302.82114     -5069.167       0             -5041.8063     -0.66712156   
     38600   290.3377      -5068.0807      0             -5041.8478     -11.568475    
     38700   289.19024     -5068.146       0             -5042.0169      2.0572874    
     38800   306.13778     -5069.7274      0             -5042.067      -12.153135    
     38900   298.4654      -5068.8343      0             -5041.8671     -26.140763    
     39000   292.89489     -5068.1859      0             -5041.722      -22.847974    
     39100   300.18243     -5068.706       0             -5041.5837     -34.018214    
     39200   282.38209     -5066.8666      0             -5041.3526     -47.909449    
     39300   294.31603     -5067.7793      0             -5041.187      -36.676571    
     39400   301.91697     -5068.3677      0             -5041.0886     -23.785251    
     39500   303.05447     -5068.6787      0             -5041.2969     -31.982903    
     39600   300.39694     -5068.6348      0             -5041.493      -6.2450481    
     39700   297.90531     -5068.601       0             -5041.6844      8.6327653    
     39800   297.56787     -5068.7843      0             -5041.8982      0.94838186   
     39900   293.51809     -5068.6808      0             -5042.1606      14.47949     
     40000   301.34846     -5069.503       0             -5042.2753      25.845606    
     40100   295.37885     -5068.8588      0             -5042.1705      21.496369    
     40200   282.07258     -5067.4136      0             -5041.9276      36.037232    
     40300   277.79966     -5066.8666      0             -5041.7666      50.420564    
     40400   284.73971     -5067.2992      0             -5041.5722      28.080455    
     40500   306.85146     -5069.3655      0             -5041.6406      34.302066    
     40600   293.66981     -5068.3244      0             -5041.7904      20.120519    
     40700   297.56576     -5068.5356      0             -5041.6496      0.12491695   
     40800   297.36773     -5068.6511      0             -5041.7831     -0.47726318   
     40900   300.71942     -5069.0954      0             -5041.9246     -7.5545127    
     41000   292.75105     -5068.4014      0             -5041.9505     -16.152444    
     41100   288.98785     -5068.0228      0             -5041.9119     -19.486493    
     41200   287.02372     -5067.6248      0             -5041.6913     -26.794854    
     41300   296.14083     -5068.3194      0             -5041.5622     -41.363059    
     41400   292.14687     -5067.7877      0             -5041.3914     -44.213359    
     41500   306.73751     -5068.9959      0             -5041.2813     -30.871915    
     41600   289.02039     -5067.4059      0             -5041.2921     -32.218458    
     41700   301.22953     -5068.6047      0             -5041.3878     -23.538114    
     41800   296.04222     -5068.2809      0             -5041.5326      2.2657979    
     41900   306.70709     -5069.4562      0             -5041.7444      4.9146528    
     42000   303.16953     -5069.3938      0             -5042.0015     -4.7501728    
     42100   299.53482     -5069.0845      0             -5042.0206      26.657282    
     42200   296.41234     -5068.8225      0             -5042.0408      17.570026    
     42300   281.98131     -5067.3501      0             -5041.8723      11.077769    
     42400   302.68235     -5069.2249      0             -5041.8767      50.292249    
     42500   286.15926     -5067.5742      0             -5041.7189      39.339748    
     42600   284.85        -5067.3293      0             -5041.5923      20.730403    
     42700   289.01184     -5067.8248      0             -5041.7117      40.890667    
     42800   301.06017     -5069.0879      0             -5041.8863      10.46577     
     42900   291.22018     -5068.2568      0             -5041.9443     -10.322803    
     43000   290.58481     -5068.3134      0             -5042.0582      10.660548    
     43100   292.75132     -5068.6439      0             -5042.1929     -16.874171    
     43200   275.62225     -5067.0512      0             -5042.1479     -24.273233    
     43300   292.14321     -5068.2583      0             -5041.8624     -4.963907     
     43400   291.42733     -5067.9989      0             -5041.6676     -36.472901    
     43500   288.89011     -5067.6612      0             -5041.5592     -48.337609    
     43600   297.94919     -5068.2475      0             -5041.327      -21.885617    
     43700   290.7555      -5067.4955      0             -5041.2249     -42.00267     
     43800   299.67953     -5068.312       0             -5041.2351     -36.916582    
     43900   306.7164      -5069.0372      0             -5041.3245      0.37899235   
     44000   289.08912     -5067.6021      0             -5041.4821     -3.0135338    
     44100   303.15443     -5069.0341      0             -5041.6433     -8.2490095    
     44200   313.38249     -5070.1988      0             -5041.8838      23.926766    
     44300   301.67403     -5069.3106      0             -5042.0535      9.586754     
     44400   295.31549     -5068.595       0             -5041.9124      8.7862307    
     44500   292.17859     -5068.2402      0             -5041.841       41.964063    
     44600   299.01423     -5068.9064      0             -5041.8896      31.774169    
     44700   295.62417     -5068.4819      0             -5041.7715      27.621615    
     44800   298.80487     -5068.6805      0             -5041.6826      45.348684    
     44900   304.7623      -5069.2355      0             -5041.6994      17.243492    
     45000   288.25011     -5067.7401      0             -5041.6959     -1.1725416    
     45100   300.72582     -5068.9989      0             -5041.8275      12.755526    
     45200   298.8558      -5068.792       0             -5041.7895     -7.9027837    
     45300   295.71078     -5068.4777      0             -5041.7593     -20.392885    
     45400   297.15923     -5068.6057      0             -5041.7565     -0.60697562   
     45500   299.07392     -5068.7042      0             -5041.682      -26.178817    
     45600   299.61553     -5068.6484      0             -5041.5773     -40.134054    
     45700   288.56946     -5067.5583      0             -5041.4852     -21.852134    
     45800   295.72962     -5068.0406      0             -5041.3206     -42.218639    
     45900   280.23028     -5066.5672      0             -5041.2476     -42.919325    
     46000   305.08812     -5068.9286      0             -5041.3631     -10.42484     
     46100   297.41746     -5068.3462      0             -5041.4737     -12.012055    
     46200   293.72317     -5068.1424      0             -5041.6036     -11.237157    
     46300   291.33827     -5068.1662      0             -5041.8429      17.437417    
     46400   293.72607     -5068.4765      0             -5041.9375      6.7235148    
     46500   303.52403     -5069.4238      0             -5041.9995      6.03365      
     46600   301.65202     -5069.2791      0             -5042.024       25.018619    
     46700   293.03332     -5068.4265      0             -5041.9501      30.017191    
     46800   300.58693     -5069.0268      0             -5041.8679      31.534947    
     46900   283.36992     -5067.3784      0             -5041.7751      36.383472    
     47000   294.90855     -5068.3182      0             -5041.6724      34.268081    
     47100   299.58891     -5068.7646      0             -5041.6959      15.12411     
     47200   303.09262     -5069.3083      0             -5041.9231      10.710783    
     47300   299.43543     -5069.006       0             -5041.9511      0.15137184   
     47400   290.81777     -5068.3483      0             -5042.0721     -12.090436    
     47500   292.91163     -5068.6032      0             -5042.1378     -10.158044    
     47600   296.82384     -5068.7952      0             -5041.9764     -9.3233541    
     47700   292.05764     -5068.2443      0             -5041.856      -31.187998    
     47800   292.31008     -5068.2038      0             -5041.7927     -30.311804    
     47900   288.52718     -5067.6586      0             -5041.5894     -32.158747    
     48000   295.10467     -5068.0406      0             -5041.3771     -42.486793    
     48100   295.19863     -5068.0417      0             -5041.3697     -31.121789    
     48200   298.21955     -5068.4007      0             -5041.4557     -12.279806    
     48300   287.50333     -5067.518       0             -5041.5413     -15.645451    
     48400   296.21307     -5068.4707      0             -5041.707      -0.85026041   
     48500   307.65643     -5069.5859      0             -5041.7882      11.809682    
     48600   308.80955     -5069.962       0             -5042.0602      4.9910452    
     48700   293.04597     -5068.5604      0             -5042.0829      13.219021    
     48800   303.79519     -5069.6341      0             -5042.1854      31.200471    
     48900   297.35506     -5068.9349      0             -5042.068       21.480107    
     49000   292.41131     -5068.351       0             -5041.9308      38.786897    
     49100   289.72626     -5067.8816      0             -5041.704       42.552753    
     49200   292.58331     -5068.2438      0             -5041.8081      19.975768    
     49300   293.06909     -5068.1511      0             -5041.6715      16.429614    
     49400   297.4594      -5068.6587      0             -5041.7824      15.599724    
     49500   307.85584     -5069.6149      0             -5041.7993     -11.413036    
     49600   296.52596     -5068.6271      0             -5041.8351     -7.9227911    
     49700   280.04706     -5067.2367      0             -5041.9337     -4.9452014    
     49800   286.61358     -5067.8115      0             -5041.9152     -23.684869    
     49900   303.02808     -5069.069       0             -5041.6896     -28.157121    
     50000   302.34587     -5068.9213      0             -5041.6035     -21.042077    
     50100   297.33111     -5068.2887      0             -5041.424      -43.740084    
     50200   309.7452      -5069.2858      0             -5041.2994     -34.514956    
     50300   288.10234     -5067.3422      0             -5041.3114     -25.901423    
     50400   296.148       -5068.1306      0             -5041.3728     -23.957258    
     50500   299.6139      -5068.5786      0             -5041.5077     -10.799055    
     50600   306.54187     -5069.3291      0             -5041.6321      9.8676263    
     50700   296.55435     -5068.5606      0             -5041.7661      5.2453049    
     50800   299.88459     -5069.0829      0             -5041.9875      11.484702    
     50900   299.13416     -5069.0545      0             -5042.0269      22.353789    
     51000   290.37578     -5068.1946      0             -5041.9583      24.524188    
     51100   289.79058     -5068.156       0             -5041.9726      23.989663    
     51200   293.53244     -5068.3979      0             -5041.8764      40.578671    
     51300   291.4392      -5068.0294      0             -5041.697       38.468761    
     51400   303.18835     -5069.1074      0             -5041.7135      18.524581    
     51500   307.35134     -5069.5633      0             -5041.7933      19.283334    
     51600   303.21453     -5069.3039      0             -5041.9076      10.549275    
     51700   299.54582     -5069.0505      0             -5041.9856     -18.260682    
     51800   300.67395     -5069.2861      0             -5042.1194     -7.9333956    
     51900   311.82392     -5070.2349      0             -5042.0607     -10.763017    
     52000   295.08114     -5068.6019      0             -5041.9404     -30.982976    
     52100   289.44239     -5067.9051      0             -5041.7532     -19.38708     
     52200   289.72186     -5067.7365      0             -5041.5593     -24.903986    
     52300   292.97932     -5067.9331      0             -5041.4615     -48.297066    
     52400   291.56734     -5067.732       0             -5041.3881     -30.123479    
     52500   304.57867     -5068.9607      0             -5041.4411     -22.839801    
     52600   309.52019     -5069.3487      0             -5041.3827     -29.560316    
     52700   308.28486     -5069.5175      0             -5041.6631     -2.6686309    
     52800   303.20458     -5069.1487      0             -5041.7533      12.838992    
     52900   296.39276     -5068.6836      0             -5041.9037     -3.1169955    
     53000   293.30545     -5068.6269      0             -5042.1259      13.899121    
     53100   289.33491     -5068.2647      0             -5042.1225      22.629612    
     53200   282.79333     -5067.6251      0             -5042.0739      11.486502    
     53300   295.25963     -5068.603       0             -5041.9255      30.573128    
     53400   301.86307     -5069.0781      0             -5041.8039      45.681129    
     53500   291.93149     -5068.2476      0             -5041.8708      20.515939    
     53600   289.11102     -5067.9395      0             -5041.8175      29.014256    
     53700   299.4475      -5068.9151      0             -5041.8592      25.789062    
     53800   287.88711     -5068.0317      0             -5042.0203     -15.820961    
     53900   285.81277     -5067.8624      0             -5042.0384     -2.1898429    
     54000   301.75987     -5069.3584      0             -5042.0935     -4.807468     
     54100   296.82507     -5068.8822      0             -5042.0632     -27.618052    
     54200   296.23002     -5068.6013      0             -5041.836      -17.15339     
     54300   290.71833     -5067.9644      0             -5041.6972     -14.15308     
     54400   304.13616     -5068.9745      0             -5041.495      -45.222246    
     54500   306.27215     -5069.1337      0             -5041.4612     -32.117254    
     54600   286.90199     -5067.2998      0             -5041.3774     -29.049183    
     54700   296.85906     -5068.143       0             -5041.3209     -29.945841    
     54800   307.66141     -5069.2039      0             -5041.4058     -14.970439    
     54900   292.95033     -5068.1128      0             -5041.6439      6.8583943    
     55000   293.63909     -5068.3411      0             -5041.8099      3.4909742    
     55100   299.14293     -5069.0073      0             -5041.9789      7.365409     
     55200   289.95592     -5068.2724      0             -5042.0741      19.058596    
     55300   310.63246     -5070.0869      0             -5042.0204      17.554036    
     55400   279.55268     -5067.1143      0             -5041.8559      14.70528     
     55500   294.71766     -5068.396       0             -5041.7674      44.185862    
     55600   288.8493      -5067.7919      0             -5041.6935      31.688587    
     55700   291.65423     -5068.0283      0             -5041.6765      22.85369     
     55800   293.19582     -5068.1339      0             -5041.6429      30.229541    
     55900   299.91668     -5068.9052      0             -5041.8069      9.0148832    
     56000   299.84152     -5068.8484      0             -5041.7569     -10.762545    
     56100   292.11323     -5068.2536      0             -5041.8603     -1.2840602    
     56200   295.81391     -5068.76        0             -5042.0323     -12.512942    
     56300   289.8418      -5068.1154      0             -5041.9274     -23.228166    
     56400   281.55997     -5067.2726      0             -5041.8329     -11.821982    
     56500   288.66166     -5067.7466      0             -5041.6652     -29.174537    
     56600   291.50098     -5067.9345      0             -5041.5966     -40.409388    
     56700   299.61838     -5068.6322      0             -5041.5608     -25.289388    
     56800   293.61477     -5067.9734      0             -5041.4445     -31.831334    
     56900   296.31658     -5068.2475      0             -5041.4744     -28.078637    
     57000   297.45294     -5068.4011      0             -5041.5254     -5.5178398    
     57100   303.27803     -5069.1027      0             -5041.7007      4.0235225    
     57200   295.3614      -5068.4202      0             -5041.7334      3.3024054    
     57300   295.97125     -5068.783       0             -5042.0411      16.373195    
     57400   312.76109     -5070.3468      0             -5042.0879      19.23633     
     57500   280.95665     -5067.378       0             -5041.9927      15.989707    
     57600   294.81112     -5068.4759      0             -5041.8388      28.198       
     57700   287.07891     -5067.8096      0             -5041.8712      29.645074    
     57800   300.79236     -5068.9373      0             -5041.7598      28.663041    
     57900   289.02105     -5067.8175      0             -5041.7036      28.421647    
     58000   300.59982     -5068.9526      0             -5041.7925      24.048748    
     58100   302.7301      -5069.228       0             -5041.8755      2.8680671    
     58200   294.16013     -5068.509       0             -5041.9308     -4.1297623    
     58300   292.59885     -5068.4266      0             -5041.9895     -8.5699036    
     58400   298.52557     -5068.9404      0             -5041.9678     -21.581579    
     58500   291.82266     -5068.1912      0             -5041.8242     -13.462051    
     58600   292.43398     -5068.0394      0             -5041.6172     -18.410793    
     58700   296.65094     -5068.2912      0             -5041.488      -32.528866    
     58800   294.37163     -5067.9883      0             -5041.391      -30.280857    
     58900   300.04061     -5068.457       0             -5041.3475     -30.686663    
     59000   300.80771     -5068.4304      0             -5041.2516     -32.185334    
     59100   294.39636     -5067.9561      0             -5041.3565     -14.213709    
     59200   299.86924     -5068.7655      0             -5041.6715     -8.7030625    
     59300   300.02209     -5068.9818      0             -5041.874      -1.7343747    
     59400   295.99972     -5068.6652      0             -5041.9208      10.618579    
     59500   297.84672     -5068.8977      0             -5041.9864      13.278612    
     59600   304.07177     -5069.4706      0             -5041.9968      13.272637    
     59700   292.86965     -5068.4179      0             -5041.9563      24.252027    
     59800   294.23627     -5068.5193      0             -5041.9342      26.794214    
     59900   296.89029     -5068.5637      0             -5041.7388      29.598956    
     60000   299.61113     -5068.7117      0             -5041.641       32.346068    
     60100   301.65871     -5068.9152      0             -5041.6595      26.089153    
     60200   295.47734     -5068.3781      0             -5041.6808      16.476206    
     60300   303.32121     -5069.2554      0             -5041.8495      11.544052    
     60400   297.86044     -5068.7884      0             -5041.8758     -8.7572872    
     60500   296.40904     -5068.6825      0             -5041.9011     -13.620868    
     60600   288.76121     -5067.9604      0             -5041.87       -8.9347113    
     60700   294.48278     -5068.5147      0             -5041.9074     -19.862922    
     60800   288.84746     -5067.9037      0             -5041.8055     -25.724322    
     60900   288.7467      -5067.8069      0             -5041.7178     -21.147138    
     61000   294.27681     -5068.1549      0             -5041.5662     -31.479476    
     61100   283.05954     -5067.0433      0             -5041.4681     -35.288669    
     61200   292.62785     -5067.951       0             -5041.5113     -14.784315    
     61300   299.79264     -5068.7532      0             -5041.6661     -17.324329    
     61400   292.77343     -5068.1806      0             -5041.7277     -13.157414    
     61500   289.76173     -5067.8412      0             -5041.6604      18.095325    
     61600   290.86525     -5068.1978      0             -5041.9173      11.747354    
     61700   301.53941     -5069.2617      0             -5042.0168      2.3852338    
     61800   285.91746     -5067.91        0             -5042.0765      31.484218    
     61900   307.02036     -5069.8288      0             -5042.0887      20.823147    
     62000   295.37898     -5068.6917      0             -5042.0033      14.339876    
     62100   294.65325     -5068.5393      0             -5041.9165      47.519866    
     62200   293.87794     -5068.4495      0             -5041.8968      24.24943     
     62300   300.75721     -5069.0782      0             -5041.904       9.3715839    
     62400   294.74535     -5068.6377      0             -5042.0066      30.914536    
     62500   284.52326     -5067.7492      0             -5042.0417      1.5022793    
     62600   285.3192      -5067.7662      0             -5041.9868     -22.551575    
     62700   302.86711     -5069.4076      0             -5042.0427      5.193625     
     62800   305.75748     -5069.6007      0             -5041.9747     -18.36455     
     62900   295.32567     -5068.5461      0             -5041.8626     -29.264387    
     63000   286.57365     -5067.6652      0             -5041.7725     -6.9688084    
     63100   295.05603     -5068.2174      0             -5041.5582     -29.230031    
     63200   286.92779     -5067.2818      0             -5041.357      -45.14646     
     63300   298.10237     -5068.4107      0             -5041.4763     -17.303639    
     63400   287.95767     -5067.5608      0             -5041.543      -26.525351    
     63500   301.75211     -5068.9062      0             -5041.6421     -21.027654    
     63600   297.30402     -5068.6807      0             -5041.8185      2.8039922    
     63700   301.24501     -5069.148       0             -5041.9296      5.1333941    
     63800   300.98561     -5069.0831      0             -5041.8882      6.0789814    
     63900   294.29883     -5068.6655      0             -5042.0748      19.480194    
     64000   295.7435      -5068.836       0             -5042.1148      15.074869    
     64100   293.17432     -5068.4794      0             -5041.9903      12.9397      
     64200   288.06581     -5067.8975      0             -5041.8699      33.200609    
     64300   297.15576     -5068.6062      0             -5041.7573      29.239314    
     64400   293.79792     -5068.3104      0             -5041.7649      23.620685    
     64500   298.1372      -5068.6086      0             -5041.6711      24.432964    
     64600   300.84278     -5068.9473      0             -5041.7653      16.665202    
     64700   304.39877     -5069.3504      0             -5041.8471     -6.2933117    
     64800   293.29948     -5068.3975      0             -5041.8971     -3.3804094    
     64900   295.68956     -5068.7352      0             -5042.0188     -14.017946    
     65000   302.31624     -5069.2678      0             -5041.9527     -22.096895    
     65100   297.75721     -5068.7599      0             -5041.8567     -17.977228    
     65200   294.82658     -5068.3037      0             -5041.6652     -19.185491    
     65300   296.82112     -5068.3674      0             -5041.5487     -34.002074    
     65400   293.38089     -5067.978       0             -5041.4703     -28.897664    
     65500   294.64808     -5068.0612      0             -5041.4389     -24.628734    
     65600   292.04778     -5067.6836      0             -5041.2963     -27.882647    
     65700   282.37726     -5066.9256      0             -5041.412      -13.953377    
     65800   292.03889     -5067.897       0             -5041.5104      5.6351583    
     65900   305.48952     -5069.1951      0             -5041.5932      2.1581612    
     66000   288.10118     -5067.8283      0             -5041.7975      13.13633     
     66100   302.56777     -5069.263       0             -5041.9252      23.738703    
     66200   297.86354     -5068.9328      0             -5042.02        12.411607    
     66300   298.14023     -5068.9697      0             -5042.0319      19.699806    
     66400   303.03817     -5069.398       0             -5042.0176      33.172238    
     66500   302.19953     -5069.2693      0             -5041.9647      25.85943     
     66600   286.45993     -5067.8247      0             -5041.9422      25.563662    
     66700   304.2456      -5069.4556      0             -5041.9662      18.027406    
     66800   291.22301     -5068.4039      0             -5042.0911      5.6354295    
     66900   293.34823     -5068.595       0             -5042.0902     -4.826766     
     67000   294.72569     -5068.7835      0             -5042.1542     -6.2709973    
     67100   289.27614     -5068.2675      0             -5042.1306     -19.483418    
     67200   292.37752     -5068.421       0             -5042.0039     -16.870632    
     67300   288.15104     -5067.8515      0             -5041.8162     -19.316953    
     67400   285.20536     -5067.4018      0             -5041.6327     -24.109778    
     67500   306.95957     -5069.2252      0             -5041.4905     -32.132589    
     67600   295.26056     -5068.1246      0             -5041.447      -34.338283    
     67700   289.75342     -5067.6807      0             -5041.5007     -27.77842     
     67800   304.52252     -5069.0528      0             -5041.5383     -20.437858    
     67900   294.77688     -5068.2495      0             -5041.6156     -7.1192762    
     68000   290.83481     -5068.1319      0             -5041.8541     -4.1959119    
     68100   304.3028      -5069.4999      0             -5042.0053      10.421245    
     68200   293.8755      -5068.5796      0             -5042.0271      17.561455    
     68300   292.72438     -5068.5548      0             -5042.1063      15.411864    
     68400   288.03288     -5068.1458      0             -5042.1212      18.146729    
     68500   294.51317     -5068.5736      0             -5041.9635      26.699126    
     68600   296.72734     -5068.6924      0             -5041.8823      27.958322    
     68700   302.32994     -5069.0579      0             -5041.7415      27.307581    
     68800   295.78501     -5068.4477      0             -5041.7227      23.560569    
     68900   293.32573     -5068.1879      0             -5041.6851      13.682012    
     69000   300.26873     -5068.9213      0             -5041.7912      1.4933141    
     69100   298.58362     -5068.802       0             -5041.8241      3.1147842    
     69200   285.54441     -5067.6766      0             -5041.8768     -9.5350191    
     69300   294.55244     -5068.4685      0             -5041.8548     -16.122125    
     69400   289.43318     -5067.9523      0             -5041.8012     -19.711718    
     69500   294.50162     -5068.2927      0             -5041.6836     -25.424645    
     69600   299.29073     -5068.7108      0             -5041.669      -24.426926    
     69700   300.83351     -5068.6322      0             -5041.451      -28.48403     
     69800   286.56373     -5067.269       0             -5041.3772     -25.934658    
     69900   299.82555     -5068.4384      0             -5041.3483     -30.993725    
     70000   308.05347     -5069.2311      0             -5041.3976     -16.193738    
     70100   296.32496     -5068.3004      0             -5041.5266     -8.532132     
     70200   296.07607     -5068.439       0             -5041.6877     -1.3390862    
     70300   293.97446     -5068.438       0             -5041.8766      7.9335773    
     70400   289.04254     -5068.1346      0             -5042.0188      21.507544    
     70500   301.77363     -5069.3246      0             -5042.0585      18.633132    
     70600   296.94878     -5068.7397      0             -5041.9095      24.362191    
     70700   280.81002     -5067.2637      0             -5041.8917      22.190154    
     70800   291.81531     -5068.1611      0             -5041.7948      26.061409    
     70900   287.87841     -5067.7002      0             -5041.6896      30.442258    
     71000   299.73062     -5068.8307      0             -5041.7492      19.703215    
     71100   299.20552     -5068.7664      0             -5041.7323      18.658715    
     71200   301.71733     -5068.9664      0             -5041.7053      0.38223676   
     71300   296.96626     -5068.7171      0             -5041.8854     -5.1510832    
     71400   300.25102     -5069.1414      0             -5042.0129     -12.169695    
     71500   300.92209     -5069.1938      0             -5042.0047     -19.073286    
     71600   291.893       -5068.2043      0             -5041.8309     -19.730422    
     71700   305.10686     -5069.1633      0             -5041.596      -18.610949    
     71800   287.61962     -5067.4744      0             -5041.4871     -24.895141    
     71900   293.6592      -5067.9597      0             -5041.4268     -27.228891    
     72000   294.58123     -5067.9729      0             -5041.3567     -31.03181     
     72100   306.05305     -5069.0079      0             -5041.3552     -24.544442    
     72200   308.41848     -5069.3185      0             -5041.452      -10.02649     
     72300   295.50788     -5068.3094      0             -5041.6095      0.24100193   
     72400   294.87729     -5068.3362      0             -5041.6932      4.1582842    
     72500   300.54819     -5068.9076      0             -5041.7522      14.014048    
     72600   292.40668     -5068.3071      0             -5041.8873      12.284693    
     72700   290.43354     -5068.0672      0             -5041.8257      18.241186    
     72800   297.65148     -5068.7101      0             -5041.8164      21.671942    
     72900   297.75972     -5068.7069      0             -5041.8034      27.032594    
     73000   293.55642     -5068.253       0             -5041.7294      26.148003    
     73100   297.99904     -5068.6833      0             -5041.7582      29.648641    
     73200   296.44755     -5068.5605      0             -5041.7757      17.642156    
     73300   294.2852      -5068.3388      0             -5041.7493      5.1638929    
     73400   292.339       -5068.2737      0             -5041.86       -2.8325034    
     73500   296.84716     -5068.7461      0             -5041.9251     -10.210304    
     73600   292.27603     -5068.2889      0             -5041.8809     -11.453001    
     73700   290.3854      -5068.0586      0             -5041.8214     -16.630401    
     73800   288.31072     -5067.6763      0             -5041.6266     -27.262485    
     73900   305.5453      -5069.1449      0             -5041.538      -19.346422    
     74000   303.55486     -5068.8279      0             -5041.4008     -24.110159    
     74100   302.50715     -5068.6844      0             -5041.352      -35.310957    
     74200   286.04492     -5067.2241      0             -5041.3791     -22.452193    
     74300   289.23842     -5067.4691      0             -5041.3356     -18.934028    
     74400   296.69738     -5068.3715      0             -5041.5641     -16.586986    
     74500   297.7506      -5068.6349      0             -5041.7323     -0.63286792   
     74600   294.88467     -5068.5461      0             -5041.9024      11.04822     
     74700   301.6582      -5069.2072      0             -5041.9515      3.8015391    
     74800   299.29939     -5069.052       0             -5042.0094      23.300711    
     74900   298.0957      -5068.9877      0             -5042.0539      19.023857    
     75000   300.62682     -5069.0763      0             -5041.9138      16.395556    
     75100   295.30595     -5068.492       0             -5041.8103      27.331562    
     75200   298.52394     -5068.7897      0             -5041.8172      27.712955    
     75300   288.21207     -5067.8522      0             -5041.8114      17.245129    
     75400   298.86722     -5068.7307      0             -5041.7272      24.698349    
     75500   289.38394     -5067.9275      0             -5041.7808      0.24296403   
     75600   302.72888     -5069.2413      0             -5041.8889     -4.5387847    
     75700   300.86193     -5069.189       0             -5042.0052     -6.8957479    
     75800   289.36305     -5068.1496      0             -5042.0048     -13.310184    
     75900   296.36309     -5068.6167      0             -5041.8395     -18.144295    
     76000   292.56206     -5068.1335      0             -5041.6997     -20.743791    
     76100   284.43094     -5067.3013      0             -5041.6022     -23.091465    
     76200   289.64819     -5067.6967      0             -5041.5261     -21.29064     
     76300   299.93002     -5068.589       0             -5041.4895     -29.933096    
     76400   288.68317     -5067.5832      0             -5041.4999     -25.419533    
     76500   295.78541     -5068.3019      0             -5041.5768     -14.394386    
     76600   291.76446     -5068.0446      0             -5041.6828     -10.469744    
     76700   301.61548     -5068.9915      0             -5041.7396      3.5854332    
     76800   302.83293     -5069.2335      0             -5041.8717      11.69218     
     76900   307.33638     -5069.6734      0             -5041.9047      6.4416827    
     77000   310.77219     -5070.0179      0             -5041.9388      17.356716    
     77100   293.51828     -5068.4531      0             -5041.9329      22.935436    
     77200   288.27969     -5067.7824      0             -5041.7355      15.7393      
     77300   286.32871     -5067.7543      0             -5041.8837      25.157943    
     77400   290.14576     -5068.0588      0             -5041.8433      25.410173    
     77500   299.16809     -5068.8016      0             -5041.7709      22.50712     
     77600   297.74708     -5068.622       0             -5041.7197      13.999982    
     77700   300.84451     -5069.0082      0             -5041.8261      2.8796318    
     77800   299.46539     -5068.8923      0             -5041.8348     -5.1494702    
     77900   305.59571     -5069.4391      0             -5041.8277     -6.2196801    
     78000   296.5222      -5068.529       0             -5041.7374     -16.48541     
     78100   286.11563     -5067.5782      0             -5041.7269     -14.32048     
     78200   292.59407     -5067.9417      0             -5041.505      -21.350998    
     78300   284.99117     -5067.2132      0             -5041.4634     -28.859963    
     78400   311.57323     -5069.7108      0             -5041.5593     -19.662104    
     78500   295.38616     -5068.1721      0             -5041.4831     -29.79459     
     78600   292.47771     -5067.9146      0             -5041.4884     -25.086669    
     78700   296.26517     -5068.3195      0             -5041.5511     -8.9835       
     78800   300.60678     -5068.7742      0             -5041.6135     -12.566541    
     78900   292.59168     -5068.1914      0             -5041.7549      0.36634473   
     79000   295.76084     -5068.5716      0             -5041.8488      14.343735    
     79100   297.4956      -5068.7595      0             -5041.88        10.539518    
     79200   295.77631     -5068.6463      0             -5041.9221      10.997605    
     79300   295.24623     -5068.5357      0             -5041.8594      30.640921    
     79400   294.34328     -5068.4233      0             -5041.8285      16.482884    
     79500   300.77214     -5068.8595      0             -5041.6839      20.958717    
     79600   295.84837     -5068.2905      0             -5041.5597      34.508701    
     79700   294.13323     -5068.2089      0             -5041.6331      14.96734     
     79800   306.03052     -5069.349       0             -5041.6983      13.600922    
     79900   309.59947     -5069.7688      0             -5041.7956      6.6506868    
     80000   295.75568     -5068.6102      0             -5041.8878     -10.358344    
     80100   297.0933      -5068.6326      0             -5041.7894     -9.7779273    
     80200   298.04291     -5068.7204      0             -5041.7914     -8.0957758    
     80300   281.6809      -5067.3001      0             -5041.8495     -21.660083    
     80400   294.56723     -5068.2427      0             -5041.6277     -23.181143    
     80500   290.84318     -5067.8274      0             -5041.5488     -15.689184    
     80600   296.75034     -5068.2081      0             -5041.3958     -28.224477    
     80700   299.23688     -5068.5016      0             -5041.4647     -22.5358      
     80800   290.83554     -5067.754       0             -5041.4762     -19.869581    
     80900   294.55724     -5068.1644      0             -5041.5503     -18.950768    
     81000   298.37569     -5068.6026      0             -5041.6435     -5.124734     
     81100   296.13213     -5068.5267      0             -5041.7703      5.8208799    
     81200   301.38616     -5068.981       0             -5041.7499      10.264192    
     81300   303.8512      -5069.4155      0             -5041.9617      12.759624    
     81400   293.46806     -5068.5133      0             -5041.9976      16.175114    
     81500   286.11458     -5067.8453      0             -5041.994       19.382167    
     81600   294.53214     -5068.5417      0             -5041.9298      21.109985    
     81700   296.40623     -5068.7541      0             -5041.973       19.158875    
     81800   299.29972     -5068.9557      0             -5041.9131      29.691783    
     81900   294.68047     -5068.5517      0             -5041.9265      16.851352    
     82000   295.5597      -5068.6817      0             -5041.9771      16.667942    
     82100   294.59047     -5068.649       0             -5042.0319      2.2708062    
     82200   295.91707     -5068.6864      0             -5041.9495     -15.07635     
     82300   300.79724     -5069.1212      0             -5041.9433     -14.778138    
     82400   294.28271     -5068.5031      0             -5041.9138     -10.163728    
     82500   291.26865     -5068.2434      0             -5041.9265     -21.566936    
     82600   293.28146     -5068.2397      0             -5041.7409     -15.018014    
     82700   284.16503     -5067.1653      0             -5041.4902     -20.434067    
     82800   297.25409     -5068.3623      0             -5041.5045     -26.766091    
     82900   304.68356     -5068.962       0             -5041.433      -29.216316    
     83000   285.39462     -5067.3011      0             -5041.5148     -16.351348    
     83100   293.38        -5068.0228      0             -5041.5151     -17.043008    
     83200   299.56095     -5068.6946      0             -5041.6284      1.1139317    
     83300   304.57057     -5069.2208      0             -5041.702       10.765907    
     83400   306.21809     -5069.5634      0             -5041.8957      6.6552491    
     83500   292.78022     -5068.3515      0             -5041.898       9.8356742    
     83600   300.46027     -5069.0319      0             -5041.8845      22.737998    
     83700   298.12504     -5068.8568      0             -5041.9203      11.820649    
     83800   303.27373     -5069.385       0             -5041.9833      22.88367     
     83900   297.70807     -5068.8122      0             -5041.9134      33.812391    
     84000   293.17673     -5068.3713      0             -5041.8819      17.131735    
     84100   292.44066     -5068.2122      0             -5041.7894      18.693257    
[...]
    263600   298.87333     -5068.6626      0             -5041.6586     -3.6570463    
    263700   290.36535     -5068.0227      0             -5041.7874     -2.4785822    
    263800   293.87372     -5068.4525      0             -5041.9002     -4.1101491    
    263900   299.08454     -5068.991       0             -5041.9678      15.012319    
    264000   305.15906     -5069.638       0             -5042.066       16.567019    
    264100   276.87916     -5066.9679      0             -5041.951       3.243142     
    264200   300.19401     -5069.0869      0             -5041.9635      15.188756    
    264300   290.19838     -5068.089       0             -5041.8687      11.211443    
    264400   282.04212     -5067.3379      0             -5041.8546     -1.4498227    
    264500   295.31496     -5068.5431      0             -5041.8606      14.58628     
    264600   290.99987     -5068.1318      0             -5041.8391      13.442378    
    264700   300.59814     -5069.0448      0             -5041.8849     -4.5201547    
    264800   294.15825     -5068.4323      0             -5041.8543      6.1028505    
    264900   280.96028     -5067.2314      0             -5041.8459     -7.4795558    
    265000   300.01784     -5068.9144      0             -5041.807      -18.905904    
    265100   296.45554     -5068.5735      0             -5041.7879     -10.382275    
    265200   303.47762     -5069.1022      0             -5041.6821     -8.1668729    
    265300   293.75578     -5068.1732      0             -5041.6315     -18.777338    
    265400   297.55057     -5068.5408      0             -5041.6563     -9.6312863    
    265500   296.09467     -5068.3152      0             -5041.5622     -11.788912    
    265600   295.31058     -5068.2692      0             -5041.587      -14.698052    
    265700   300.35968     -5068.7684      0             -5041.6301     -5.2441505    
    265800   299.46614     -5068.7677      0             -5041.71       -6.7140805    
    265900   297.31955     -5068.6421      0             -5041.7784     -5.9356729    
    266000   299.15999     -5068.8269      0             -5041.797       5.7458598    
    266100   290.31763     -5068.095       0             -5041.864       8.4012579    
    266200   295.00458     -5068.4827      0             -5041.8281      10.956562    
    266300   297.12482     -5068.7317      0             -5041.8856      13.753123    
    266400   302.50782     -5069.3129      0             -5041.9805      12.20413     
    266500   305.38024     -5069.5201      0             -5041.9281      11.179032    
    266600   291.40392     -5068.1465      0             -5041.8173      10.989093    
    266700   294.37941     -5068.4952      0             -5041.8971      8.1832767    
    266800   306.39408     -5069.6281      0             -5041.9445      5.3045796    
    266900   293.89356     -5068.388       0             -5041.8339      7.9109576    
    267000   286.75422     -5067.7392      0             -5041.8301     -3.7654004    
    267100   302.55569     -5069.1651      0             -5041.8284     -7.9797687    
    267200   294.25184     -5068.3408      0             -5041.7543     -13.841592    
    267300   295.34689     -5068.4594      0             -5041.774      -14.218347    
    267400   297.12195     -5068.5791      0             -5041.7333     -17.021702    
    267500   291.91281     -5068.035       0             -5041.6599     -8.9638958    
    267600   284.96361     -5067.3984      0             -5041.6511     -14.016021    
    267700   306.0633      -5069.2536      0             -5041.5999     -9.0722353    
    267800   287.35965     -5067.6143      0             -5041.6505     -13.963166    
    267900   294.13778     -5068.2484      0             -5041.6723     -3.9465626    
    268000   299.38304     -5068.6856      0             -5041.6355     -12.116273    
    268100   282.82279     -5067.3334      0             -5041.7796      0.8154725    
    268200   292.33201     -5068.2904      0             -5041.8774      8.4696708    
    268300   294.4334      -5068.3985      0             -5041.7956      6.6834477    
    268400   287.36252     -5067.7068      0             -5041.7427      13.912687    
    268500   297.14264     -5068.4934      0             -5041.6457      11.481735    
    268600   283.12626     -5067.1973      0             -5041.616       3.785767     
    268700   295.02934     -5068.2665      0             -5041.6097      18.376595    
    268800   295.27321     -5068.3067      0             -5041.628       6.415396     
    268900   293.20751     -5068.1888      0             -5041.6966      5.6588846    
    269000   287.87498     -5067.6807      0             -5041.6703      10.247821    
    269100   295.48748     -5068.4677      0             -5041.7696     -3.9563105    
    269200   294.9467      -5068.3867      0             -5041.7374     -9.0172134    
    269300   293.26444     -5068.1531      0             -5041.6558      4.4131318    
    269400   281.59788     -5067.1355      0             -5041.6923     -19.536507    
    269500   301.34027     -5068.845       0             -5041.6181     -13.471932    
    269600   305.17951     -5069.1926      0             -5041.6188     -4.4246073    
    269700   298.08945     -5068.5196      0             -5041.5864     -21.498779    
    269800   297.64948     -5068.4773      0             -5041.5838     -11.079285    
    269900   303.81447     -5068.8336      0             -5041.3831     -5.1675814    
    270000   291.58534     -5067.904       0             -5041.5585     -18.046309    
    270100   275.81237     -5066.5129      0             -5041.5925     -3.4081791    
    270200   294.90372     -5068.3161      0             -5041.6707      6.4242221    
    270300   301.98557     -5069.0453      0             -5041.76       -10.413981    
    270400   307.77791     -5069.6279      0             -5041.8193      5.5165447    
    270500   296.31858     -5068.5276      0             -5041.7544      18.334477    
    270600   295.85943     -5068.4382      0             -5041.7065      5.2685039    
    270700   308.13243     -5069.5667      0             -5041.726       11.959285    
    270800   303.84883     -5069.3113      0             -5041.8577      15.044114    
    270900   288.95003     -5067.9749      0             -5041.8674      6.8002647    
    271000   292.03869     -5068.3204      0             -5041.9339      9.2764686    
    271100   286.83397     -5067.7108      0             -5041.7946      11.916754    
    271200   301.29704     -5069.0045      0             -5041.7814      5.7793147    
    271300   307.91295     -5069.5075      0             -5041.6867      0.0027874034 
    271400   287.63307     -5067.6518      0             -5041.6634      3.9015422    
    271500   295.40361     -5068.3333      0             -5041.6427     -8.4135278    
    271600   295.1994      -5068.2213      0             -5041.5492     -17.900955    
    271700   298.07649     -5068.5491      0             -5041.617      -10.982102    
    271800   304.48902     -5069.1613      0             -5041.6498     -12.288907    
    271900   293.71214     -5068.1135      0             -5041.5758     -17.779546    
    272000   291.78278     -5067.8392      0             -5041.4758     -3.0442137    
    272100   302.43377     -5068.8431      0             -5041.5173     -9.0991642    
    272200   292.4491      -5067.9794      0             -5041.5558     -16.649292    
    272300   297.99173     -5068.5738      0             -5041.6494     -0.99180278   
    272400   302.4226      -5069.0052      0             -5041.6805     -0.60687798   
    272500   290.23374     -5067.8995      0             -5041.676      -4.7007483    
    272600   301.77377     -5069.0128      0             -5041.7467      14.94421     
    272700   308.32458     -5069.574       0             -5041.716       16.860399    
    272800   293.35092     -5068.1302      0             -5041.6251      2.4227837    
    272900   299.69222     -5068.7204      0             -5041.6424      15.889705    
    273000   301.54251     -5068.9256      0             -5041.6803      11.851145    
    273100   294.68742     -5068.3367      0             -5041.7109      5.5551936    
    273200   295.3373      -5068.4021      0             -5041.7176      15.216945    
    273300   298.43117     -5068.6823      0             -5041.7182      14.984505    
    273400   293.40291     -5068.1882      0             -5041.6784     -3.121635     
    273500   293.96716     -5068.248       0             -5041.6872      4.3617828    
    273600   305.59224     -5069.2778      0             -5041.6667     -3.0151921    
    273700   290.64249     -5067.9205      0             -5041.6601     -20.149966    
    273800   301.45044     -5068.8545      0             -5041.6176     -11.363477    
    273900   284.58844     -5067.3842      0             -5041.6708     -5.1210046    
    274000   297.66832     -5068.6392      0             -5041.744      -16.328861    
    274100   303.4195      -5069.1579      0             -5041.7431     -13.587324    
    274200   294.42581     -5068.2773      0             -5041.6751     -7.6658646    
    274300   298.74898     -5068.5968      0             -5041.604      -13.928747    
    274400   287.24464     -5067.5743      0             -5041.621      -13.771266    
    274500   299.62305     -5068.8521      0             -5041.7803      4.1751822    
    274600   301.0455      -5068.9746      0             -5041.7743     -0.98029063   
    274700   283.63794     -5067.2818      0             -5041.6543     -2.8070772    
    274800   299.82487     -5068.7942      0             -5041.7042      14.726047    
    274900   294.52841     -5068.4237      0             -5041.8122      8.0542154    
    275000   301.87193     -5069.0713      0             -5041.7963      0.35889523   
    275100   311.87321     -5069.9867      0             -5041.8081      20.020516    
    275200   301.42474     -5068.9542      0             -5041.7197      10.954746    
    275300   290.1844      -5067.9581      0             -5041.7392      3.121567     
    275400   293.94909     -5068.3086      0             -5041.7494      18.590386    
    275500   289.51593     -5067.8755      0             -5041.7169      5.0248847    
    275600   289.86986     -5067.9173      0             -5041.7267      0.087980131  
    275700   298.27272     -5068.6782      0             -5041.7284      5.1612146    
    275800   295.52022     -5068.3758      0             -5041.6747     -7.9404732    
    275900   298.2896      -5068.7169      0             -5041.7656     -17.392395    
    276000   299.94252     -5068.8396      0             -5041.739      -5.7383568    
    276100   301.67614     -5069.0007      0             -5041.7434     -16.686406    
    276200   290.59539     -5067.8374      0             -5041.5812     -13.044799    
    276300   289.60742     -5067.6733      0             -5041.5065     -5.1557918    
    276400   292.65497     -5067.9733      0             -5041.5311     -11.812618    
    276500   300.52624     -5068.5707      0             -5041.4173     -14.970429    
    276600   302.52955     -5068.917       0             -5041.5826     -6.3638247    
    276700   296.65011     -5068.3819      0             -5041.5788     -12.342604    
    276800   297.21811     -5068.4492      0             -5041.5947      4.5035856    
    276900   290.83816     -5067.9568      0             -5041.6787      4.6107114    
    277000   298.92977     -5068.8689      0             -5041.8598      7.9179277    
    277100   302.83191     -5069.1646      0             -5041.8028      10.004133    
    277200   282.52504     -5067.4099      0             -5041.883       12.887017    
    277300   292.04483     -5068.4628      0             -5042.0757      7.954514     
    277400   296.16576     -5068.6997      0             -5041.9403      6.7869701    
    277500   297.94652     -5068.9241      0             -5042.0038      8.7475611    
    277600   295.50367     -5068.6665      0             -5041.9669      8.1634098    
    277700   305.91313     -5069.5001      0             -5041.86        6.3416938    
    277800   299.87631     -5068.926       0             -5041.8313      1.881917     
    277900   294.26978     -5068.4124      0             -5041.8243      0.41988816   
    278000   313.53595     -5070.2563      0             -5041.9274     -12.157438    
    278100   305.36733     -5069.5219      0             -5041.9311     -13.587577    
    278200   285.65469     -5067.6649      0             -5041.8552     -6.0763541    
    278300   295.90989     -5068.4184      0             -5041.6821     -12.42477     
    278400   284.30427     -5067.3103      0             -5041.6227     -13.509691    
    278500   301.16421     -5068.9164      0             -5041.7054     -6.4936909    
    278600   298.67177     -5068.6088      0             -5041.623      -13.841763    
    278700   284.58594     -5067.4244      0             -5041.7113     -10.391003    
    278800   293.5331      -5068.2785      0             -5041.7569     -6.0492834    
    278900   293.84556     -5068.2876      0             -5041.7379     -4.3383951    
    279000   293.47693     -5068.298       0             -5041.7815     -3.0307287    
    279100   286.62717     -5067.6592      0             -5041.7616      12.864946    
    279200   296.63854     -5068.6154      0             -5041.8133      7.0741227    
    279300   307.15814     -5069.4538      0             -5041.7012      5.237186     
    279400   306.33822     -5069.442       0             -5041.7635      14.827235    
    279500   290.30664     -5068.0125      0             -5041.7824      7.6819735    
    279600   293.46387     -5068.2114      0             -5041.6961      10.636696    
    279700   288.12043     -5067.8065      0             -5041.774       10.790383    
    279800   280.43225     -5067.0377      0             -5041.6998      5.07222      
    279900   287.31583     -5067.6151      0             -5041.6553      8.8900245    
    280000   293.1335      -5068.2848      0             -5041.7994      1.833861     
    280100   293.03414     -5068.2375      0             -5041.761      -7.4070557    
    280200   303.87556     -5069.327       0             -5041.871      -3.3252095    
    280300   288.30936     -5067.9049      0             -5041.8553     -14.857407    
    280400   288.7053      -5067.9123      0             -5041.8269     -14.986707    
    280500   294.78539     -5068.2809      0             -5041.6462     -11.84434     
    280600   300.97991     -5068.8899      0             -5041.6955     -18.019825    
    280700   295.96024     -5068.3923      0             -5041.6514     -14.605602    
    280800   284.40921     -5067.3455      0             -5041.6484     -1.2529493    
    280900   289.48766     -5067.8557      0             -5041.6996     -14.055675    
    281000   308.40139     -5069.5553      0             -5041.6904     -12.63716     
    281100   297.25363     -5068.6522      0             -5041.7945     -2.3515821    
    281200   292.84283     -5068.3432      0             -5041.8841      1.230245     
    281300   292.34961     -5068.2534      0             -5041.8388      7.252498     
    281400   302.92611     -5069.156       0             -5041.7857      16.764054    
    281500   298.40451     -5068.6187      0             -5041.657       10.088751    
    281600   296.24057     -5068.6005      0             -5041.8343      10.273627    
    281700   289.26778     -5067.9926      0             -5041.8565      5.0445656    
    281800   301.97857     -5069.1179      0             -5041.8333      6.5159017    
    281900   298.0871      -5068.6505      0             -5041.7175      14.358233    
    282000   296.75776     -5068.5152      0             -5041.7023      12.175071    
    282100   301.01743     -5068.7674      0             -5041.5696      6.5918999    
    282200   294.02084     -5068.3346      0             -5041.769       2.3319138    
    282300   293.18248     -5068.2606      0             -5041.7708     -3.4537849    
    282400   296.4787      -5068.5871      0             -5041.7994     -10.989421    
    282500   302.14424     -5069.2277      0             -5041.9281     -16.239609    
    282600   298.5527      -5068.7915      0             -5041.8164     -9.9375694    
    282700   295.0829      -5068.2837      0             -5041.6221     -9.287203     
    282800   285.13716     -5067.2594      0             -5041.4964     -13.955563    
    282900   296.63234     -5068.4189      0             -5041.6173     -6.847638     
    283000   302.80263     -5068.8761      0             -5041.517      -11.074748    
    283100   297.47047     -5068.4403      0             -5041.563      -16.91426     
    283200   300.80684     -5068.7835      0             -5041.6048     -4.4397213    
    283300   295.13591     -5068.2496      0             -5041.5833     -1.2183622    
    283400   301.6694      -5068.8924      0             -5041.6357      3.1809785    
    283500   298.33393     -5068.611       0             -5041.6557      7.3566638    
    283600   306.72359     -5069.3395      0             -5041.6262      10.572097    
    283700   288.7132      -5067.7413      0             -5041.6553      12.65148     
    283800   298.25229     -5068.6462      0             -5041.6983      8.5275253    
    283900   299.73404     -5068.9146      0             -5041.8327      7.9393023    
    284000   304.41254     -5069.2613      0             -5041.7568      6.6302989    
    284100   303.47113     -5069.1872      0             -5041.7677      8.9219153    
    284200   289.66621     -5067.9564      0             -5041.7843      4.6286347    
    284300   283.1979      -5067.3646      0             -5041.7768      8.3847857    
    284400   282.80624     -5067.3019      0             -5041.7495     -3.3993754    
    284500   294.25702     -5068.3863      0             -5041.7994     -5.4480687    
    284600   291.77223     -5068.0689      0             -5041.7065     -11.864373    
    284700   298.9585      -5068.7178      0             -5041.706      -10.515877    
    284800   286.11834     -5067.4539      0             -5041.6023     -15.85865     
    284900   301.69641     -5068.8335      0             -5041.5744     -7.2225796    
    285000   307.91473     -5069.217       0             -5041.3961     -11.79254     
Loop time of 1094.69 on 5 procs for 280000 steps with 700 atoms

Performance: 11.050 ns/day, 2.172 hours/ns, 255.780 timesteps/s, 179.046 katom-step/s
99.8% CPU use with 5 MPI tasks x 1 OpenMP threads

MPI task timing breakdown:
Section |  min time  |  avg time  |  max time  |%varavg| %total
---------------------------------------------------------------
Pair    | 0.031778   | 218.17     | 1090.4     |2952.7 | 19.93
Neigh   | 0.0010054  | 0.045595   | 0.21882    |  40.6 |  0.00
Comm    | 0.034329   | 97.27      | 485.88     |1970.1 |  8.89
Output  | 0.77761    | 0.87744    | 0.93701    |   7.0 |  0.08
Modify  | 1.8937     | 777.2      | 1092.6     |1545.8 | 71.00
Other   |            | 1.124      |            |       |  0.10

Nlocal:            140 ave         700 max           0 min
Histogram: 4 0 0 0 0 0 0 0 0 1
Nghost:             28 ave         140 max           0 min
Histogram: 4 0 0 0 0 0 0 0 0 1
Neighs:              0 ave           0 max           0 min
Histogram: 5 0 0 0 0 0 0 0 0 0
FullNghs:        30792 ave      153960 max           0 min
Histogram: 4 0 0 0 0 0 0 0 0 1

Total # of neighbors = 153960
Ave neighs/atom = 219.94286
Neighbor list builds = 193
Dangerous builds = 0

Total wall time: 0:18:35
